# vtk DataFile Version 2.0

ASCII

DATASET UNSTRUCTURED_GRID
POINTS 18536 float
-0.5 -0.0625 0.943256
-0.4375 -0.0625 0.944232
-0.4375 0 0.944233
-0.5 0 0.943256
-0.4375 -0.0625 0.944232
-0.375 -0.0625 0.944348
-0.375 0 0.944348
-0.4375 0 0.944233
-0.4375 -0.125 0.944231
-0.375 -0.125 0.944341
-0.375 -0.0625 0.944348
-0.4375 -0.0625 0.944232
-0.5 -0.125 0.943255
-0.4375 -0.125 0.944231
-0.4375 -0.0625 0.944232
-0.5 -0.0625 0.943256
-0.375 -0.015625 0.944348
-0.359375 -0.015625 0.944067
-0.359375 0 0.944068
-0.375 0 0.944348
-0.359375 -0.015625 0.944067
-0.34375 -0.015625 0.941945
-0.34375 0 0.941793
-0.359375 0 0.944068
-0.359375 -0.03125 0.943901
-0.34375 -0.03125 0.942427
-0.34375 -0.015625 0.941945
-0.359375 -0.015625 0.944067
-0.375 -0.03125 0.944348
-0.359375 -0.03125 0.943901
-0.359375 -0.015625 0.944067
-0.375 -0.015625 0.944348
-0.34375 -0.015625 0.941945
-0.328125 -0.015625 0.93057
-0.328125 0 0.930564
-0.34375 0 0.941793
-0.328125 -0.015625 0.93057
-0.3125 -0.015625 0.923448
-0.3125 0 0.92344
-0.328125 0 0.930564
-0.328125 -0.03125 0.930572
-0.3125 -0.03125 0.923466
-0.3125 -0.015625 0.923448
-0.328125 -0.015625 0.93057
-0.34375 -0.03125 0.942427
-0.328125 -0.03125 0.930572
-0.328125 -0.015625 0.93057
-0.34375 -0.015625 0.941945
-0.34375 -0.046875 0.942337
-0.328125 -0.046875 0.930534
-0.328125 -0.03125 0.930572
-0.34375 -0.03125 0.942427
-0.328125 -0.046875 0.930534
-0.3125 -0.046875 0.923459
-0.3125 -0.03125 0.923466
-0.328125 -0.03125 0.930572
-0.328125 -0.0625 0.93054
-0.3125 -0.0625 0.923454
-0.3125 -0.046875 0.923459
-0.328125 -0.046875 0.930534
-0.34375 -0.0625 0.942231
-0.328125 -0.0625 0.93054
-0.328125 -0.046875 0.930534
-0.34375 -0.046875 0.942337
-0.375 -0.046875 0.944348
-0.359375 -0.046875 0.94385
-0.359375 -0.03125 0.943901
-0.375 -0.03125 0.944348
-0.359375 -0.046875 0.94385
-0.34375 -0.046875 0.942337
-0.34375 -0.03125 0.942427
-0.359375 -0.03125 0.943901
-0.359375 -0.0625 0.94382
-0.34375 -0.0625 0.942231
-0.34375 -0.046875 0.942337
-0.359375 -0.046875 0.94385
-0.375 -0.0625 0.944348
-0.359375 -0.0625 0.94382
-0.359375 -0.046875 0.94385
-0.375 -0.046875 0.944348
-0.3125 -0.015625 0.923448
-0.296875 -0.015625 0.917944
-0.296875 0 0.917885
-0.3125 0 0.92344
-0.296875 -0.015625 0.917944
-0.28125 -0.015625 0.912378
-0.28125 0 0.912269
-0.296875 0 0.917885
-0.296875 -0.03125 0.918003
-0.28125 -0.03125 0.912475
-0.28125 -0.015625 0.912378
-0.296875 -0.015625 0.917944
-0.3125 -0.03125 0.923466
-0.296875 -0.03125 0.918003
-0.296875 -0.015625 0.917944
-0.3125 -0.015625 0.923448
-0.28125 -0.015625 0.912378
-0.265625 -0.015625 0.904512
-0.265625 0 0.90451
-0.28125 0 0.912269
-0.265625 -0.015625 0.904512
-0.25 -0.015625 0.898895
-0.25 0 0.898892
-0.265625 0 0.90451
-0.265625 -0.03125 0.904518
-0.25 -0.03125 0.898895
-0.25 -0.015625 0.898895
-0.265625 -0.015625 0.904512
-0.28125 -0.03125 0.912475
-0.265625 -0.03125 0.904518
-0.265625 -0.015625 0.904512
-0.28125 -0.015625 0.912378
-0.28125 -0.046875 0.912275
-0.265625 -0.046875 0.904518
-0.265625 -0.03125 0.904518
-0.28125 -0.03125 0.912475
-0.265625 -0.046875 0.904518
-0.25 -0.046875 0.898872
-0.25 -0.03125 0.898895
-0.265625 -0.03125 0.904518
-0.265625 -0.0625 0.904481
-0.25 -0.0625 0.898847
-0.25 -0.046875 0.898872
-0.265625 -0.046875 0.904518
-0.28125 -0.0625 0.912254
-0.265625 -0.0625 0.904481
-0.265625 -0.046875 0.904518
-0.28125 -0.046875 0.912275
-0.3125 -0.046875 0.923459
-0.296875 -0.046875 0.918026
-0.296875 -0.03125 0.918003
-0.3125 -0.03125 0.923466
-0.296875 -0.046875 0.918026
-0.28125 -0.046875 0.912275
-0.28125 -0.03125 0.912475
-0.296875 -0.03125 0.918003
-0.296875 -0.0625 0.917936
-0.28125 -0.0625 0.912254
-0.28125 -0.046875 0.912275
-0.296875 -0.046875 0.918026
-0.3125 -0.0625 0.923454
-0.296875 -0.0625 0.917936
-0.296875 -0.046875 0.918026
-0.3125 -0.046875 0.923459
-0.3125 -0.078125 0.923442
-0.296875 -0.078125 0.917908
-0.296875 -0.0625 0.917936
-0.3125 -0.0625 0.923454
-0.296875 -0.078125 0.917908
-0.28125 -0.078125 0.912196
-0.28125 -0.0625 0.912254
-0.296875 -0.0625 0.917936
-0.296875 -0.09375 0.917871
-0.28125 -0.09375 0.912135
-0.28125 -0.078125 0.912196
-0.296875 -0.078125 0.917908
-0.3125 -0.09375 0.923423
-0.296875 -0.09375 0.917871
-0.296875 -0.078125 0.917908
-0.3125 -0.078125 0.923442
-0.28125 -0.078125 0.912196
-0.265625 -0.078125 0.904473
-0.265625 -0.0625 0.904481
-0.28125 -0.0625 0.912254
-0.265625 -0.078125 0.904473
-0.25 -0.078125 0.898838
-0.25 -0.0625 0.898847
-0.265625 -0.0625 0.904481
-0.265625 -0.09375 0.904445
-0.25 -0.09375 0.898837
-0.25 -0.078125 0.898838
-0.265625 -0.078125 0.904473
-0.28125 -0.09375 0.912135
-0.265625 -0.09375 0.904445
-0.265625 -0.078125 0.904473
-0.28125 -0.078125 0.912196
-0.28125 -0.109375 0.912202
-0.265625 -0.109375 0.904459
-0.265625 -0.09375 0.904445
-0.28125 -0.09375 0.912135
-0.265625 -0.109375 0.904459
-0.25 -0.109375 0.898872
-0.25 -0.09375 0.898837
-0.265625 -0.09375 0.904445
-0.265625 -0.125 0.904458
-0.25 -0.125 0.898904
-0.25 -0.109375 0.898872
-0.265625 -0.109375 0.904459
-0.28125 -0.125 0.912269
-0.265625 -0.125 0.904458
-0.265625 -0.109375 0.904459
-0.28125 -0.109375 0.912202
-0.3125 -0.109375 0.923452
-0.296875 -0.109375 0.917924
-0.296875 -0.09375 0.917871
-0.3125 -0.09375 0.923423
-0.296875 -0.109375 0.917924
-0.28125 -0.109375 0.912202
-0.28125 -0.09375 0.912135
-0.296875 -0.09375 0.917871
-0.296875 -0.125 0.917978
-0.28125 -0.125 0.912269
-0.28125 -0.109375 0.912202
-0.296875 -0.109375 0.917924
-0.3125 -0.125 0.923489
-0.296875 -0.125 0.917978
-0.296875 -0.109375 0.917924
-0.3125 -0.109375 0.923452
-0.375 -0.078125 0.944346
-0.359375 -0.078125 0.944048
-0.359375 -0.0625 0.94382
-0.375 -0.0625 0.944348
-0.359375 -0.078125 0.944048
-0.34375 -0.078125 0.941724
-0.34375 -0.0625 0.942231
-0.359375 -0.0625 0.94382
-0.359375 -0.09375 0.943861
-0.34375 -0.09375 0.942187
-0.34375 -0.078125 0.941724
-0.359375 -0.078125 0.944048
-0.375 -0.09375 0.944344
-0.359375 -0.09375 0.943861
-0.359375 -0.078125 0.944048
-0.375 -0.078125 0.944346
-0.34375 -0.078125 0.941724
-0.328125 -0.078125 0.930534
-0.328125 -0.0625 0.93054
-0.34375 -0.0625 0.942231
-0.328125 -0.078125 0.930534
-0.3125 -0.078125 0.923442
-0.3125 -0.0625 0.923454
-0.328125 -0.0625 0.93054
-0.328125 -0.09375 0.930524
-0.3125 -0.09375 0.923423
-0.3125 -0.078125 0.923442
-0.328125 -0.078125 0.930534
-0.34375 -0.09375 0.942187
-0.328125 -0.09375 0.930524
-0.328125 -0.078125 0.930534
-0.34375 -0.078125 0.941724
-0.34375 -0.109375 0.942194
-0.328125 -0.109375 0.930512
-0.328125 -0.09375 0.930524
-0.34375 -0.09375 0.942187
-0.328125 -0.109375 0.930512
-0.3125 -0.109375 0.923452
-0.3125 -0.09375 0.923423
-0.328125 -0.09375 0.930524
-0.328125 -0.125 0.930537
-0.3125 -0.125 0.923489
-0.3125 -0.109375 0.923452
-0.328125 -0.109375 0.930512
-0.34375 -0.125 0.942192
-0.328125 -0.125 0.930537
-0.328125 -0.109375 0.930512
-0.34375 -0.109375 0.942194
-0.375 -0.109375 0.944343
-0.359375 -0.109375 0.943853
-0.359375 -0.09375 0.943861
-0.375 -0.09375 0.944344
-0.359375 -0.109375 0.943853
-0.34375 -0.109375 0.942194
-0.34375 -0.09375 0.942187
-0.359375 -0.09375 0.943861
-0.359375 -0.125 0.943891
-0.34375 -0.125 0.942192
-0.34375 -0.109375 0.942194
-0.359375 -0.109375 0.943853
-0.375 -0.125 0.944341
-0.359375 -0.125 0.943891
-0.359375 -0.109375 0.943853
-0.375 -0.109375 0.944343
-0.375 -0.140625 0.944343
-0.359375 -0.140625 0.944041
-0.359375 -0.125 0.943891
-0.375 -0.125 0.944341
-0.359375 -0.140625 0.944041
-0.34375 -0.140625 0.941805
-0.34375 -0.125 0.942192
-0.359375 -0.125 0.943891
-0.359375 -0.15625 0.943451
-0.34375 -0.15625 0.94239
-0.34375 -0.140625 0.941805
-0.359375 -0.140625 0.944041
-0.375 -0.15625 0.944345
-0.359375 -0.15625 0.943451
-0.359375 -0.140625 0.944041
-0.375 -0.140625 0.944343
-0.34375 -0.140625 0.941805
-0.328125 -0.140625 0.930536
-0.328125 -0.125 0.930537
-0.34375 -0.125 0.942192
-0.328125 -0.140625 0.930536
-0.3125 -0.140625 0.923471
-0.3125 -0.125 0.923489
-0.328125 -0.125 0.930537
-0.328125 -0.15625 0.930514
-0.3125 -0.15625 0.923456
-0.3125 -0.140625 0.923471
-0.328125 -0.140625 0.930536
-0.34375 -0.15625 0.94239
-0.328125 -0.15625 0.930514
-0.328125 -0.140625 0.930536
-0.34375 -0.140625 0.941805
-0.34375 -0.171875 0.942436
-0.328125 -0.171875 0.930483
-0.328125 -0.15625 0.930514
-0.34375 -0.15625 0.94239
-0.328125 -0.171875 0.930483
-0.3125 -0.171875 0.923436
-0.3125 -0.15625 0.923456
-0.328125 -0.15625 0.930514
-0.328125 -0.1875 0.930521
-0.3125 -0.1875 0.923414
-0.3125 -0.171875 0.923436
-0.328125 -0.171875 0.930483
-0.34375 -0.1875 0.942455
-0.328125 -0.1875 0.930521
-0.328125 -0.171875 0.930483
-0.34375 -0.171875 0.942436
-0.375 -0.171875 0.944347
-0.359375 -0.171875 0.943457
-0.359375 -0.15625 0.943451
-0.375 -0.15625 0.944345
-0.359375 -0.171875 0.943457
-0.34375 -0.171875 0.942436
-0.34375 -0.15625 0.94239
-0.359375 -0.15625 0.943451
-0.359375 -0.1875 0.943466
-0.34375 -0.1875 0.942455
-0.34375 -0.171875 0.942436
-0.359375 -0.171875 0.943457
-0.375 -0.1875 0.94435
-0.359375 -0.1875 0.943466
-0.359375 -0.171875 0.943457
-0.375 -0.171875 0.944347
-0.3125 -0.140625 0.923471
-0.296875 -0.140625 0.917967
-0.296875 -0.125 0.917978
-0.3125 -0.125 0.923489
-0.296875 -0.140625 0.917967
-0.28125 -0.140625 0.912241
-0.28125 -0.125 0.912269
-0.296875 -0.125 0.917978
-0.296875 -0.15625 0.917925
-0.28125 -0.15625 0.912251
-0.28125 -0.140625 0.912241
-0.296875 -0.140625 0.917967
-0.3125 -0.15625 0.923456
-0.296875 -0.15625 0.917925
-0.296875 -0.140625 0.917967
-0.3125 -0.140625 0.923471
-0.28125 -0.140625 0.912241
-0.265625 -0.140625 0.904429
-0.265625 -0.125 0.904458
-0.28125 -0.125 0.912269
-0.265625 -0.140625 0.904429
-0.25 -0.140625 0.898881
-0.25 -0.125 0.898904
-0.265625 -0.125 0.904458
-0.265625 -0.15625 0.904379
-0.25 -0.15625 0.898862
-0.25 -0.140625 0.898881
-0.265625 -0.140625 0.904429
-0.28125 -0.15625 0.912251
-0.265625 -0.15625 0.904379
-0.265625 -0.140625 0.904429
-0.28125 -0.140625 0.912241
-0.28125 -0.171875 0.912222
-0.265625 -0.171875 0.904388
-0.265625 -0.15625 0.904379
[...]
POINT_DATA 18536
SCALARS "pressure" float 1
LOOKUP_TABLE default
0.943256
0.944232
0.944233
0.943256
0.944232
0.944348
0.944348
0.944233
0.944231
0.944341
0.944348
0.944232
0.943255
0.944231
0.944232
0.943256
0.944348
0.944067
0.944068
0.944348
0.944067
0.941945
0.941793
0.944068
0.943901
0.942427
0.941945
0.944067
0.944348
0.943901
0.944067
0.944348
0.941945
0.93057
0.930564
0.941793
0.93057
0.923448
0.92344
0.930564
0.930572
0.923466
0.923448
0.93057
0.942427
0.930572
0.93057
0.941945
0.942337
0.930534
0.930572
0.942427
0.930534
0.923459
0.923466
0.930572
0.93054
0.923454
0.923459
0.930534
0.942231
0.93054
0.930534
0.942337
0.944348
0.94385
0.943901
0.944348
0.94385
0.942337
0.942427
0.943901
0.94382
0.942231
0.942337
0.94385
0.944348
0.94382
0.94385
0.944348
0.923448
0.917944
0.917885
0.92344
0.917944
0.912378
0.912269
0.917885
0.918003
0.912475
0.912378
0.917944
0.923466
0.918003
0.917944
0.923448
0.912378
0.904512
0.90451
0.912269
0.904512
0.898895
0.898892
0.90451
0.904518
0.898895
0.898895
0.904512
0.912475
0.904518
0.904512
0.912378
0.912275
0.904518
0.904518
0.912475
0.904518
0.898872
0.898895
0.904518
0.904481
0.898847
0.898872
0.904518
0.912254
0.904481
0.904518
0.912275
0.923459
0.918026
0.918003
0.923466
0.918026
0.912275
0.912475
0.918003
0.917936
0.912254
0.912275
0.918026
0.923454
0.917936
0.918026
0.923459
0.923442
0.917908
0.917936
0.923454
0.917908
0.912196
0.912254
0.917936
0.917871
0.912135
0.912196
0.917908
0.923423
0.917871
0.917908
0.923442
0.912196
0.904473
0.904481
0.912254
0.904473
0.898838
0.898847
0.904481
0.904445
0.898837
0.898838
0.904473
0.912135
0.904445
0.904473
0.912196
0.912202
0.904459
0.904445
0.912135
0.904459
0.898872
0.898837
0.904445
0.904458
0.898904
0.898872
0.904459
0.912269
0.904458
0.904459
0.912202
0.923452
0.917924
0.917871
0.923423
0.917924
0.912202
0.912135
0.917871
0.917978
0.912269
0.912202
0.917924
0.923489
0.917978
0.917924
0.923452
0.944346
0.944048
0.94382
0.944348
0.944048
0.941724
0.942231
0.94382
0.943861
0.942187
0.941724
0.944048
0.944344
0.943861
0.944048
0.944346
0.941724
0.930534
0.93054
0.942231
0.930534
0.923442
0.923454
0.93054
0.930524
0.923423
0.923442
0.930534
0.942187
0.930524
0.930534
0.941724
0.942194
0.930512
0.930524
0.942187
0.930512
0.923452
0.923423
0.930524
0.930537
0.923489
0.923452
0.930512
0.942192
0.930537
0.930512
0.942194
0.944343
0.943853
0.943861
0.944344
0.943853
0.942194
0.942187
0.943861
0.943891
0.942192
0.942194
0.943853
0.944341
0.943891
0.943853
0.944343
0.944343
0.944041
0.943891
0.944341
0.944041
0.941805
0.942192
0.943891
0.943451
0.94239
0.941805
0.944041
0.944345
0.943451
0.944041
0.944343
0.941805
0.930536
0.930537
0.942192
0.930536
0.923471
0.923489
0.930537
0.930514
0.923456
0.923471
0.930536
0.94239
0.930514
0.930536
0.941805
0.942436
0.930483
0.930514
0.94239
0.930483
0.923436
0.923456
0.930514
0.930521
0.923414
0.923436
0.930483
0.942455
0.930521
0.930483
0.942436
0.944347
0.943457
0.943451
0.944345
0.943457
0.942436
0.94239
0.943451
0.943466
0.942455
0.942436
0.943457
0.94435
0.943466
0.943457
0.944347
0.923471
0.917967
0.917978
0.923489
0.917967
0.912241
0.912269
0.917978
0.917925
0.912251
0.912241
0.917967
0.923456
0.917925
0.917967
0.923471
0.912241
0.904429
0.904458
0.912269
0.904429
0.898881
0.898904
0.904458
0.904379
0.898862
0.898881
0.904429
0.912251
0.904379
0.904429
0.912241
0.912222
0.904388
0.904379
0.912251
0.904388
0.898872
0.898862
0.904379
0.90443
0.898883
0.898872
0.904388
0.912188
0.90443
0.904388
0.912222
0.923436
0.917903
0.917925
0.923456
0.917903
0.912222
0.912251
0.917925
0.917874
0.912188
0.912222
0.917903
0.923414
0.917874
0.917903
0.923436
0.923436
0.917905
0.917874
0.923414
0.917905
0.912237
0.912188
0.917874
0.917927
0.912278
0.912237
0.917905
0.923454
0.917927
0.917905
0.923436
0.912237
0.904477
0.90443
0.912188
0.904477
0.898886
0.898883
0.90443
0.90449
0.898909
0.898886
0.904477
0.912278
0.90449
0.904477
0.912237
0.9122
0.904465
0.90449
0.912278
0.904465
0.898879
0.898909
0.90449
0.904398
0.898863
0.898879
0.904465
0.912212
0.904398
0.904465
0.9122
0.923459
0.917959
0.917927
0.923454
0.917959
0.9122
0.912278
0.917927
0.917906
0.912212
0.9122
0.917959
0.923485
0.917906
0.917959
0.923459
0.944351
0.944075
0.943466
0.94435
0.944075
0.941938
0.942455
0.943466
0.944023
0.941909
0.941938
0.944075
0.944352
0.944023
0.944075
0.944351
0.941938
0.930538
0.930521
0.942455
0.930538
0.923436
0.923414
0.930521
0.930546
0.923454
0.923436
0.930538
0.941909
0.930546
0.930538
0.941938
0.941482
0.930552
0.930546
0.941909
0.930552
0.923459
0.923454
0.930546
0.930567
0.923485
0.923459
0.930552
0.941931
0.930567
0.930552
0.941482
0.944353
0.94402
0.944023
0.944352
0.94402
0.941482
0.941909
0.944023
0.944022
0.941931
0.941482
0.94402
0.944354
0.944022
0.94402
0.944353
0.943255
0.944232
0.944231
0.943255
0.944232
0.94435
0.944341
0.944231
0.944235
0.944354
0.94435
0.944232
0.943255
0.944235
0.944232
0.943255
0.898895
0.893505
0.893492
0.898892
0.893505
0.887898
0.887874
0.893492
0.893513
0.887924
0.887898
0.893505
0.898895
0.893513
0.893505
0.898895
0.887898
0.881764
0.88176
0.887874
0.881764
0.876956
0.87691
0.88176
0.88178
0.876997
0.876956
0.881764
0.887924
0.88178
0.881764
0.887898
0.887907
0.881816
0.88178
0.887924
0.881816
0.876998
0.876997
0.88178
0.881845
0.877011
0.876998
0.881816
0.887908
0.881845
0.881816
0.887907
0.898872
0.893506
0.893513
0.898895
0.893506
0.887907
0.887924
0.893513
0.893481
0.887908
0.887907
0.893506
0.898847
0.893481
0.893506
0.898872
0.876956
0.871991
0.87193
0.87691
0.871991
0.866751
0.866673
0.87193
0.872044
0.86682
0.866751
0.871991
0.876997
0.872044
0.871991
0.876956
0.866751
0.855867
0.855865
0.866673
0.855867
0.833723
0.833723
0.855865
0.855884
0.833721
0.833723
0.855867
0.86682
0.855884
0.855867
0.866751
0.866816
0.855932
0.855884
0.86682
0.855932
0.833725
0.833721
0.855884
0.855964
0.833723
0.833725
0.855932
0.866844
0.855964
0.855932
0.866816
0.876998
0.872133
0.872044
0.876997
0.872133
0.866816
0.86682
0.872044
0.872144
0.866844
0.866816
0.872133
0.877011
0.872144
0.872133
0.876998
0.87701
0.87225
0.872144
0.877011
0.87225
0.866851
0.866844
0.872144
0.872107
0.866949
0.866851
0.87225
0.877069
0.872107
0.87225
0.87701
0.866851
0.855966
0.855964
0.866844
0.855966
0.833702
0.833723
0.855964
0.855937
0.833675
0.833702
0.855966
0.866949
0.855937
0.855966
0.866851
0.866905
0.855908
0.855937
0.866949
0.855908
0.833652
0.833675
0.855937
0.855862
0.833626
0.833652
0.855908
0.866837
0.855862
0.855908
0.866905
0.877061
0.872086
0.872107
0.877069
0.872086
0.866905
0.866949
0.872107
0.872048
0.866837
0.866905
0.872086
0.877053
0.872048
0.872086
0.877061
0.898838
0.893517
0.893481
0.898847
0.893517
0.88788
0.887908
0.893481
0.893477
0.887902
0.88788
0.893517
0.898837
0.893477
0.893517
0.898838
0.88788
0.881856
0.881845
0.887908
0.881856
0.87701
0.877011
0.881845
0.881838
0.877069
0.87701
0.881856
0.887902
0.881838
0.881856
0.88788
0.887938
0.881831
0.881838
0.887902
0.881831
0.877061
0.877069
0.881838
0.881843
0.877053
0.877061
0.881831
0.888016
0.881843
0.881831
0.887938
0.898872
0.893529
0.893477
0.898837
0.893529
0.887938
0.887902
0.893477
0.893544
0.888016
0.887938
0.893529
0.898904
0.893544
0.893529
0.898872
0.833723
0.813855
0.813857
0.833723
0.813855
0.793667
0.793672
0.813857
0.813852
0.793662
0.793667
0.813855
0.833723
0.813852
0.813855
0.833723
0.793662
0.739821
0.739838
0.793672
0.793652
0.73982
0.739821
0.793662
0.833722
0.813849
0.813852
0.833723
0.813849
0.793657
0.793662
0.813852
0.813846
0.793652
0.793657
0.813849
0.833721
0.813846
0.813849
0.833722
0.739821
0.671924
0.671973
0.739838
0.671949
0.637163
0.637189
0.671973
0.637163
0.601369
0.601365
0.637189
0.637163
0.601366
0.601369
0.637163
0.671924
0.637163
0.637163
0.671949
0.671923
0.637154
0.637163
0.671924
0.637154
0.60137
0.601366
0.637163
0.637163
0.601371
0.60137
0.637154
0.671922
0.637163
0.637154
0.671923
0.73982
0.671922
0.671924
0.739821
0.739817
0.67194
0.671922
0.73982
0.671931
0.637153
0.637163
0.671922
0.637153
0.60136
0.601371
0.637163
0.637158
0.601349
0.60136
0.637153
0.67194
0.637158
0.637153
0.671931
0.671931
0.637144
0.637158
0.67194
0.637144
0.60134
0.601349
0.637158
0.637145
0.601339
0.60134
0.637144
0.671922
0.637145
0.637144
0.671931
0.739793
0.671922
0.67194
0.739817
0.833723
0.813843
0.813846
0.833721
0.813843
0.793644
0.793652
0.813846
0.81384
0.793636
0.793644
0.813843
0.833725
0.81384
0.813843
0.833723
0.793636
0.739817
0.73982
0.793652
0.793614
0.739793
0.739817
0.793636
0.833724
0.813833
0.81384
0.833725
0.813833
0.793625
0.793636
0.81384
0.813827
0.793614
0.793625
0.813833
0.833723
0.813827
0.813833
0.833724
0.601367
0.560394
0.560659
0.601365
0.560394
0.53971
0.539746
0.560659
0.560404
0.539676
0.53971
0.560394
0.601369
0.560404
0.560394
0.601367
0.53971
0.528096
0.528105
0.539746
0.528096
0.518832
0.518835
0.528105
0.528081
0.518826
0.518832
0.528096
0.539676
0.528081
0.528096
0.53971
0.539657
0.528069
0.528081
0.539676
0.528069
0.518818
0.518826
0.528081
0.528055
0.518809
0.518818
0.528069
0.539632
0.528055
0.528069
0.539657
0.601367
0.560344
0.560404
0.601369
0.560344
0.539657
0.539676
0.560404
0.560362
0.539632
0.539657
0.560344
0.601366
0.560362
0.560344
0.601367
0.518832
0.510229
0.51023
0.518835
0.510229
0.503366
0.503366
0.51023
0.510225
0.503365
0.503366
0.510229
0.518826
0.510225
0.510229
0.518832
0.503366
0.500136
0.500136
0.503366
0.500136
0.500017
0.500019
0.500136
0.500135
0.500016
0.500017
0.500136
0.503365
0.500135
0.500136
0.503366
0.50336
0.500133
0.500135
0.503365
0.500133
0.500015
0.500016
0.500135
0.500131
0.500013
0.500015
0.500133
0.503351
0.500131
0.500133
0.50336
0.518818
0.510219
0.510225
0.518826
0.510219
0.50336
0.503365
0.510225
0.51021
0.503351
0.50336
0.510219
0.518809
0.51021
0.510219
0.518818
0.518799
0.510197
0.51021
0.518809
0.510197
0.503338
0.503351
0.51021
0.510179
0.503321
0.503338
0.510197
0.518787
0.510179
0.510197
0.518799
0.503338
0.500127
0.500131
0.503351
0.500127
0.500011
0.500013
0.500131
0.500123
0.500008
0.500011
0.500127
0.503321
0.500123
0.500127
0.503338
0.503301
0.500118
0.500123
0.503321
0.500118
0.500006
0.500008
0.500123
0.500115
0.500003
0.500006
0.500118
0.503286
0.500115
0.500118
0.503301
0.518768
0.510158
0.510179
0.518787
0.510158
0.503301
0.503321
0.510179
0.510139
0.503286
0.503301
0.510158
0.518746
0.510139
0.510158
0.518768
0.601368
0.56029
0.560362
0.601366
0.56029
0.539626
0.539632
0.560362
0.560403
0.539656
0.539626
0.56029
0.60137
0.560403
0.56029
0.601368
0.539626
0.528049
0.528055
0.539632
0.528049
0.518799
0.518809
0.528055
0.52805
0.518787
0.518799
0.528049
0.539656
0.52805
0.528049
0.539626
0.539656
0.528039
0.52805
0.539656
0.528039
0.518768
0.518787
0.52805
0.528012
0.518746
0.518768
0.528039
0.539622
0.528012
0.528039
0.539656
0.601371
0.560364
0.560403
0.60137
0.560364
0.539656
0.539656
0.560403
0.560387
0.539622
0.539656
0.560364
0.601371
0.560387
0.560364
0.601371
0.500013
0.499308
0.499293
0.500019
0.499297
0.495238
0.495243
0.499293
0.495238
0.494195
0.49419
0.495243
0.495241
0.494209
0.494195
0.495238
0.499301
0.495241
0.495238
0.499297
0.494195
0.493333
0.493316
0.49419
0.493333
0.49211
0.492103
0.493316
0.493363
0.492118
0.49211
0.493333
0.494209
0.493363
0.493333
0.494195
0.494228
0.493388
0.493363
0.494209
0.493388
0.49212
0.492118
0.493363
0.493403
0.492114
0.49212
0.493388
0.494246
0.493403
0.493388
0.494228
0.499304
0.495255
0.495241
0.499301
0.495255
0.494228
0.494209
0.495241
0.495276
0.494246
0.494228
0.495255
0.499308
0.495276
0.495255
0.499304
0.499311
0.495291
0.495276
0.499308
0.495291
0.494258
0.494246
0.495276
0.495309
0.494266
0.494258
0.495291
0.499314
0.495309
0.495291
0.499311
0.494258
0.493404
0.493403
0.494246
0.493404
0.492101
0.492114
0.493403
0.493389
0.492081
0.492101
0.493404
0.494266
0.493389
0.493404
0.494258
0.494274
0.493357
0.493389
0.494266
0.493357
0.492056
0.492081
0.493389
0.493309
0.492031
0.492056
0.493357
0.494276
0.493309
0.493357
0.494274
0.499317
0.495333
0.495309
0.499314
0.495333
0.494274
0.494266
0.495309
0.495359
0.494276
0.494274
0.495333
0.499321
0.495359
0.495333
0.499317
0.500003
0.499321
0.499308
0.500013
0.500008
0.499333
0.499321
0.500003
0.499324
0.495369
0.495359
0.499321
0.495369
0.494273
0.494276
0.495359
0.495372
0.494266
0.494273
0.495369
0.499327
0.495372
0.495369
0.499324
0.494273
0.493256
0.493309
0.494276
0.493256
0.492011
0.492031
0.493309
0.493222
0.492
0.492011
0.493256
0.494266
0.493222
0.493256
0.494273
0.494258
0.493202
0.493222
0.494266
0.493202
0.491998
0.492
0.493222
0.493189
0.492
0.491998
0.493202
0.49425
0.493189
0.493202
0.494258
0.49933
0.495373
0.495372
0.499327
0.495373
0.494258
0.494266
0.495372
0.495373
0.49425
0.494258
0.495373
0.499333
0.495373
0.495373
0.49933
0.499333
0.495356
0.495373
0.499333
0.495356
0.494236
0.49425
0.495373
0.49534
0.494225
0.494236
0.495356
0.499334
0.49534
0.495356
0.499333
0.494236
0.493181
0.493189
0.49425
0.493181
0.492006
0.492
0.493189
0.49318
0.492014
0.492006
0.493181
0.494225
0.49318
0.493181
0.494236
0.494217
0.49318
0.49318
0.494225
0.49318
0.49202
0.492014
0.49318
0.493172
0.492023
0.49202
0.49318
0.494212
0.493172
0.49318
0.494217
0.499334
0.495333
0.49534
0.499334
0.495333
0.494217
0.494225
0.49534
0.495334
0.494212
0.494217
0.495333
0.499334
0.495334
0.495333
0.499334
0.500014
0.499334
0.499333
0.500008
0.601366
0.560294
0.560387
0.601371
0.560294
0.539605
0.539622
0.560387
0.560354
0.539618
0.539605
0.560294
0.60136
0.560354
0.560294
0.601366
0.539605
0.528002
0.528012
0.539622
0.528002
0.518739
0.518746
0.528012
0.528015
0.518751
0.518739
0.528002
0.539618
0.528015
0.528002
0.539605
0.53964
0.528033
0.528015
0.539618
0.528033
0.518767
0.518751
0.528015
0.528034
0.518772
0.518767
0.528033
0.539639
0.528034
0.528033
0.53964
0.601355
0.560335
0.560354
0.60136
0.560335
0.53964
0.539618
0.560354
0.560407
0.539639
0.53964
0.560335
0.601349
0.560407
0.560335
0.601355
0.518739
0.510135
0.510139
0.518746
0.510135
0.503284
0.503286
0.510139
0.510145
0.503292
0.503284
0.510135
0.518751
0.510145
0.510135
0.518739
0.503284
0.500115
0.500115
0.503286
0.500115
0.500004
0.500003
0.500115
0.500117
0.500005
0.500004
0.500115
0.503292
0.500117
0.500115
0.503284
0.503303
0.50012
0.500117
0.503292
0.50012
0.500007
0.500005
0.500117
0.500122
0.500008
0.500007
0.50012
0.503312
0.500122
0.50012
0.503303
0.518767
0.510159
0.510145
0.518751
0.510159
0.503303
0.503292
0.510145
0.510167
0.503312
0.503303
0.510159
0.518772
0.510167
0.510159
0.518767
0.518771
0.510173
0.510167
0.518772
0.510173
0.503321
0.503312
0.510167
0.510182
0.50333
0.503321
0.510173
0.518778
0.510182
0.510173
0.518771
0.503321
0.500125
0.500122
0.503312
0.500125
0.500009
0.500008
0.500122
0.500127
0.500011
0.500009
0.500125
0.50333
0.500127
0.500125
0.503321
0.503338
0.500129
0.500127
0.50333
0.500129
0.500012
0.500011
0.500127
0.50013
0.500014
0.500012
0.500129
0.503338
0.50013
0.500129
0.503338
0.518794
0.510194
0.510182
0.518778
0.510194
0.503338
0.50333
0.510182
0.510196
0.503338
0.503338
0.510194
0.518799
0.510196
0.510194
0.518794
0.601344
0.560282
0.560407
0.601349
0.560282
0.5396
0.539639
0.560407
0.560302
0.539596
0.5396
0.560282
0.60134
0.560302
0.560282
0.601344
0.5396
0.528019
0.528034
0.539639
0.528019
0.518771
0.518772
0.528034
0.528023
0.518778
0.518771
0.528019
0.539596
0.528023
0.528019
0.5396
0.539625
0.528044
0.528023
0.539596
0.528044
0.518794
0.518778
0.528023
0.528053
0.518799
0.518794
0.528044
0.539645
0.528053
0.528044
0.539625
0.601339
0.560291
0.560302
0.60134
0.560291
0.539625
0.539596
0.560302
0.560399
0.539645
0.539625
0.560291
0.601339
0.560399
0.560291
0.601339
0.601347
0.560312
0.560399
0.601339
0.560312
0.53963
0.539645
0.560399
0.560328
0.539608
0.53963
0.560312
0.601354
0.560328
0.560312
0.601347
0.53963
0.52804
0.528053
0.539645
0.52804
0.518786
0.518799
0.528053
0.528018
0.518765
0.518786
0.52804
0.539608
0.528018
0.52804
0.53963
0.539613
0.528009
0.528018
0.539608
0.528009
0.518748
0.518765
0.528018
0.528012
0.51874
0.518748
0.528009
0.539638
0.528012
0.528009
0.539613
0.601363
0.560315
0.560328
0.601354
0.560315
0.539613
0.539608
0.560328
0.560434
0.539638
0.539613
0.560315
0.601372
0.560434
0.560315
0.601363
0.518786
0.510185
0.510196
0.518799
0.510185
0.50333
0.503338
0.510196
0.510165
0.503314
0.50333
0.510185
0.518765
0.510165
0.510185
0.518786
0.50333
0.500128
0.50013
0.503338
0.500128
0.500013
0.500014
0.50013
0.500125
0.500011
0.500013
0.500128
0.503314
0.500125
0.500128
0.50333
0.503297
0.500122
0.500125
0.503314
0.500122
0.50001
0.500011
0.500125
0.50012
0.500009
0.50001
0.500122
0.503285
0.50012
0.500122
0.503297
0.518748
0.510146
0.510165
0.518765
0.510146
0.503297
0.503314
0.510165
0.510134
0.503285
0.503297
0.510146
0.51874
0.510134
0.510146
0.518748
0.518738
0.51013
0.510134
0.51874
0.51013
0.503281
0.503285
0.510134
0.510132
0.503285
0.503281
0.51013
0.518737
0.510132
0.51013
0.518738
0.503281
0.50012
0.50012
0.503285
0.50012
0.50001
0.500009
0.50012
0.500122
0.500011
0.50001
0.50012
0.503285
0.500122
0.50012
0.503281
0.503293
0.500124
0.500122
0.503285
0.500124
0.500012
0.500011
0.500122
0.500127
0.500014
0.500012
0.500124
0.503305
0.500127
0.500124
0.503293
0.51874
0.510141
0.510132
0.518737
0.510141
0.503293
0.503285
0.510132
0.510155
0.503305
0.503293
0.510141
0.518752
0.510155
0.510141
0.51874
0.601362
0.560339
0.560434
0.601372
0.560339
0.539633
0.539638
0.560434
0.560353
0.539609
0.539633
0.560339
0.601353
0.560353
0.560339
0.601362
0.539633
0.528011
0.528012
0.539638
0.528011
0.518738
0.51874
0.528012
0.528002
0.518737
0.518738
0.528011
0.539609
0.528002
0.528011
0.539633
0.539583
0.527994
0.528002
0.539609
0.527994
0.51874
0.518737
0.528002
0.528002
0.518752
0.51874
0.527994
0.53959
0.528002
0.527994
0.539583
0.601343
0.560265
0.560353
0.601353
0.560265
0.539583
0.539609
0.560353
0.560343
0.53959
0.539583
0.560265
0.601333
0.560343
0.560265
0.601343
0.500009
0.499332
0.499334
0.500014
0.499333
0.495321
0.495334
0.499334
0.495321
0.494203
0.494212
0.495334
0.495313
0.494196
0.494203
0.495321
0.499333
0.495313
0.495321
0.499333
0.494203
0.493154
0.493172
0.494212
0.493154
0.492022
0.492023
0.493172
0.493142
0.49202
0.492022
0.493154
0.494196
0.493142
0.493154
0.494203
0.494192
0.493137
0.493142
0.494196
0.493137
0.49202
0.49202
0.493142
0.493141
0.492022
0.49202
0.493137
0.49419
0.493141
0.493137
0.494192
0.499332
0.495311
0.495313
0.499333
0.495311
0.494192
0.494196
0.495313
0.495313
0.49419
0.494192
0.495311
0.499332
0.495313
0.495311
0.499332
0.499331
0.495301
0.495313
0.499332
0.495301
0.494185
0.49419
0.495313
0.495292
0.494182
0.494185
0.495301
0.499331
0.495292
0.495301
0.499331
0.494185
0.493153
0.493141
0.49419
0.493153
0.492027
0.492022
0.493141
0.493167
0.492034
0.492027
0.493153
0.494182
0.493167
0.493153
0.494185
0.49418
0.493178
0.493167
0.494182
0.493178
0.49204
0.492034
0.493167
0.493184
0.492046
0.49204
0.493178
0.49418
0.493184
0.493178
0.49418
0.499331
0.495287
0.495292
0.499331
0.495287
0.49418
0.494182
0.495292
0.495287
0.49418
0.49418
0.495287
0.49933
0.495287
0.495287
0.499331
0.500014
0.49933
0.499332
0.500009
0.500021
0.499331
0.49933
0.500014
0.49933
0.495276
0.495287
0.49933
0.495276
0.494178
0.49418
0.495287
0.49527
0.494178
0.494178
0.495276
0.499331
0.49527
0.495276
0.49933
0.494178
0.493188
0.493184
0.49418
0.493188
0.492052
0.492046
0.493184
0.493193
0.492056
0.492052
0.493188
0.494178
0.493193
0.493188
0.494178
0.49418
0.493193
0.493193
0.494178
0.493193
0.492059
0.492056
0.493193
0.493187
0.492059
0.492059
0.493193
0.494183
0.493187
0.493193
0.49418
0.499331
0.49527
0.49527
0.499331
0.49527
0.49418
0.494178
0.49527
0.495275
0.494183
0.49418
0.49527
0.499331
0.495275
0.49527
0.499331
0.49933
0.495269
0.495275
0.499331
0.495269
0.494182
0.494183
0.495275
0.495266
0.494183
0.494182
0.495269
0.49933
0.495266
0.495269
0.49933
0.494182
0.493178
0.493187
0.494183
0.493178
0.492058
0.492059
0.493187
0.493177
0.492055
0.492058
0.493178
0.494183
0.493177
0.493178
0.494182
0.494184
0.493179
0.493177
0.494183
0.493179
0.492053
0.492055