# vtk DataFile Version 2.0

ASCII

DATASET UNSTRUCTURED_GRID
POINTS 19320 float
-0.5 -0.03125 0.996525
-0.46875 -0.03125 0.99653
-0.46875 0 0.99653
-0.5 0 0.996525
-0.46875 -0.015625 0.99653
-0.453125 -0.015625 0.995314
-0.453125 0 0.995328
-0.46875 0 0.99653
-0.453125 -0.015625 0.995314
-0.4375 -0.015625 0.992514
-0.4375 0 0.992514
-0.453125 0 0.995328
-0.453125 -0.03125 0.995319
-0.4375 -0.03125 0.992516
-0.4375 -0.015625 0.992514
-0.453125 -0.015625 0.995314
-0.46875 -0.03125 0.99653
-0.453125 -0.03125 0.995319
-0.453125 -0.015625 0.995314
-0.46875 -0.015625 0.99653
-0.46875 -0.046875 0.99653
-0.453125 -0.046875 0.995311
-0.453125 -0.03125 0.995319
-0.46875 -0.03125 0.99653
-0.453125 -0.046875 0.995311
-0.4375 -0.046875 0.992519
-0.4375 -0.03125 0.992516
-0.453125 -0.03125 0.995319
-0.453125 -0.0625 0.995312
-0.4375 -0.0625 0.992522
-0.4375 -0.046875 0.992519
-0.453125 -0.046875 0.995311
-0.46875 -0.0625 0.99653
-0.453125 -0.0625 0.995312
-0.453125 -0.046875 0.995311
-0.46875 -0.046875 0.99653
-0.5 -0.0625 0.996525
-0.46875 -0.0625 0.99653
-0.46875 -0.03125 0.99653
-0.5 -0.03125 0.996525
-0.4375 -0.015625 0.992514
-0.421875 -0.015625 0.989359
-0.421875 0 0.989358
-0.4375 0 0.992514
-0.421875 -0.015625 0.989359
-0.40625 -0.015625 0.985398
-0.40625 0 0.985396
-0.421875 0 0.989358
-0.421875 -0.03125 0.989364
-0.40625 -0.03125 0.985404
-0.40625 -0.015625 0.985398
-0.421875 -0.015625 0.989359
-0.4375 -0.03125 0.992516
-0.421875 -0.03125 0.989364
-0.421875 -0.015625 0.989359
-0.4375 -0.015625 0.992514
-0.40625 -0.015625 0.985398
-0.390625 -0.015625 0.980306
-0.390625 0 0.980305
-0.40625 0 0.985396
-0.390625 -0.015625 0.980306
-0.375 -0.015625 0.973852
-0.375 0 0.973852
-0.390625 0 0.980305
-0.390625 -0.03125 0.98031
-0.375 -0.03125 0.973854
-0.375 -0.015625 0.973852
-0.390625 -0.015625 0.980306
-0.40625 -0.03125 0.985404
-0.390625 -0.03125 0.98031
-0.390625 -0.015625 0.980306
-0.40625 -0.015625 0.985398
-0.40625 -0.046875 0.985411
-0.390625 -0.046875 0.980316
-0.390625 -0.03125 0.98031
-0.40625 -0.03125 0.985404
-0.390625 -0.046875 0.980316
-0.375 -0.046875 0.973859
-0.375 -0.03125 0.973854
-0.390625 -0.03125 0.98031
-0.390625 -0.0625 0.980321
-0.375 -0.0625 0.973866
-0.375 -0.046875 0.973859
-0.390625 -0.046875 0.980316
-0.40625 -0.0625 0.985416
-0.390625 -0.0625 0.980321
-0.390625 -0.046875 0.980316
-0.40625 -0.046875 0.985411
-0.4375 -0.046875 0.992519
-0.421875 -0.046875 0.989369
-0.421875 -0.03125 0.989364
-0.4375 -0.03125 0.992516
-0.421875 -0.046875 0.989369
-0.40625 -0.046875 0.985411
-0.40625 -0.03125 0.985404
-0.421875 -0.03125 0.989364
-0.421875 -0.0625 0.989374
-0.40625 -0.0625 0.985416
-0.40625 -0.046875 0.985411
-0.421875 -0.046875 0.989369
-0.4375 -0.0625 0.992522
-0.421875 -0.0625 0.989374
-0.421875 -0.046875 0.989369
-0.4375 -0.046875 0.992519
-0.4375 -0.078125 0.992524
-0.421875 -0.078125 0.989376
-0.421875 -0.0625 0.989374
-0.4375 -0.0625 0.992522
-0.421875 -0.078125 0.989376
-0.40625 -0.078125 0.985418
-0.40625 -0.0625 0.985416
-0.421875 -0.0625 0.989374
-0.421875 -0.09375 0.989378
-0.40625 -0.09375 0.985421
-0.40625 -0.078125 0.985418
-0.421875 -0.078125 0.989376
-0.4375 -0.09375 0.992525
-0.421875 -0.09375 0.989378
-0.421875 -0.078125 0.989376
-0.4375 -0.078125 0.992524
-0.40625 -0.078125 0.985418
-0.390625 -0.078125 0.980327
-0.390625 -0.0625 0.980321
-0.40625 -0.0625 0.985416
-0.390625 -0.078125 0.980327
-0.375 -0.078125 0.973876
-0.375 -0.0625 0.973866
-0.390625 -0.0625 0.980321
-0.390625 -0.09375 0.980334
-0.375 -0.09375 0.973887
-0.375 -0.078125 0.973876
-0.390625 -0.078125 0.980327
-0.40625 -0.09375 0.985421
-0.390625 -0.09375 0.980334
-0.390625 -0.078125 0.980327
-0.40625 -0.078125 0.985418
-0.40625 -0.109375 0.985424
-0.390625 -0.109375 0.980341
-0.390625 -0.09375 0.980334
-0.40625 -0.09375 0.985421
-0.390625 -0.109375 0.980341
-0.375 -0.109375 0.973899
-0.375 -0.09375 0.973887
-0.390625 -0.09375 0.980334
-0.390625 -0.125 0.980348
-0.375 -0.125 0.973911
-0.375 -0.109375 0.973899
-0.390625 -0.109375 0.980341
-0.40625 -0.125 0.985427
-0.390625 -0.125 0.980348
-0.390625 -0.109375 0.980341
-0.40625 -0.109375 0.985424
-0.4375 -0.109375 0.992526
-0.421875 -0.109375 0.98938
-0.421875 -0.09375 0.989378
-0.4375 -0.09375 0.992525
-0.421875 -0.109375 0.98938
-0.40625 -0.109375 0.985424
-0.40625 -0.09375 0.985421
-0.421875 -0.09375 0.989378
-0.421875 -0.125 0.989381
-0.40625 -0.125 0.985427
-0.40625 -0.109375 0.985424
-0.421875 -0.109375 0.98938
-0.4375 -0.125 0.992526
-0.421875 -0.125 0.989381
-0.421875 -0.109375 0.98938
-0.4375 -0.109375 0.992526
-0.5 -0.09375 0.996524
-0.46875 -0.09375 0.996529
-0.46875 -0.0625 0.99653
-0.5 -0.0625 0.996525
-0.46875 -0.078125 0.996529
-0.453125 -0.078125 0.9953
-0.453125 -0.0625 0.995312
-0.46875 -0.0625 0.99653
-0.453125 -0.078125 0.9953
-0.4375 -0.078125 0.992524
-0.4375 -0.0625 0.992522
-0.453125 -0.0625 0.995312
-0.453125 -0.09375 0.995299
-0.4375 -0.09375 0.992525
-0.4375 -0.078125 0.992524
-0.453125 -0.078125 0.9953
-0.46875 -0.09375 0.996529
-0.453125 -0.09375 0.995299
-0.453125 -0.078125 0.9953
-0.46875 -0.078125 0.996529
-0.46875 -0.109375 0.996529
-0.453125 -0.109375 0.995283
-0.453125 -0.09375 0.995299
-0.46875 -0.09375 0.996529
-0.453125 -0.109375 0.995283
-0.4375 -0.109375 0.992526
-0.4375 -0.09375 0.992525
-0.453125 -0.09375 0.995299
-0.453125 -0.125 0.995278
-0.4375 -0.125 0.992526
-0.4375 -0.109375 0.992526
-0.453125 -0.109375 0.995283
-0.46875 -0.125 0.996528
-0.453125 -0.125 0.995278
-0.453125 -0.109375 0.995283
-0.46875 -0.109375 0.996529
-0.5 -0.125 0.996521
-0.46875 -0.125 0.996528
-0.46875 -0.09375 0.996529
-0.5 -0.09375 0.996524
-0.375 -0.015625 0.973852
-0.359375 -0.015625 0.965841
-0.359375 0 0.965841
-0.375 0 0.973852
-0.359375 -0.015625 0.965841
-0.34375 -0.015625 0.956101
-0.34375 0 0.956101
-0.359375 0 0.965841
-0.359375 -0.03125 0.965843
-0.34375 -0.03125 0.956105
-0.34375 -0.015625 0.956101
-0.359375 -0.015625 0.965841
-0.375 -0.03125 0.973854
-0.359375 -0.03125 0.965843
-0.359375 -0.015625 0.965841
-0.375 -0.015625 0.973852
-0.34375 -0.015625 0.956101
-0.328125 -0.015625 0.944476
-0.328125 0 0.944474
-0.34375 0 0.956101
-0.328125 -0.015625 0.944476
-0.3125 -0.015625 0.930835
-0.3125 0 0.930832
-0.328125 0 0.944474
-0.328125 -0.03125 0.944482
-0.3125 -0.03125 0.930846
-0.3125 -0.015625 0.930835
-0.328125 -0.015625 0.944476
-0.34375 -0.03125 0.956105
-0.328125 -0.03125 0.944482
-0.328125 -0.015625 0.944476
-0.34375 -0.015625 0.956101
-0.34375 -0.046875 0.956113
-0.328125 -0.046875 0.944494
-0.328125 -0.03125 0.944482
-0.34375 -0.03125 0.956105
-0.328125 -0.046875 0.944494
-0.3125 -0.046875 0.930863
-0.3125 -0.03125 0.930846
-0.328125 -0.03125 0.944482
-0.328125 -0.0625 0.944512
-0.3125 -0.0625 0.930886
-0.3125 -0.046875 0.930863
-0.328125 -0.046875 0.944494
-0.34375 -0.0625 0.956125
-0.328125 -0.0625 0.944512
-0.328125 -0.046875 0.944494
-0.34375 -0.046875 0.956113
-0.375 -0.046875 0.973859
-0.359375 -0.046875 0.965849
-0.359375 -0.03125 0.965843
-0.375 -0.03125 0.973854
-0.359375 -0.046875 0.965849
-0.34375 -0.046875 0.956113
-0.34375 -0.03125 0.956105
-0.359375 -0.03125 0.965843
-0.359375 -0.0625 0.965858
-0.34375 -0.0625 0.956125
-0.34375 -0.046875 0.956113
-0.359375 -0.046875 0.965849
-0.375 -0.0625 0.973866
-0.359375 -0.0625 0.965858
-0.359375 -0.046875 0.965849
-0.375 -0.046875 0.973859
-0.3125 -0.015625 0.930835
-0.296875 -0.015625 0.915098
-0.296875 0 0.915093
-0.3125 0 0.930832
-0.296875 -0.015625 0.915098
-0.28125 -0.015625 0.897242
-0.28125 0 0.897234
-0.296875 0 0.915093
-0.296875 -0.03125 0.915114
-0.28125 -0.03125 0.897264
-0.28125 -0.015625 0.897242
-0.296875 -0.015625 0.915098
-0.3125 -0.03125 0.930846
-0.296875 -0.03125 0.915114
-0.296875 -0.015625 0.915098
-0.3125 -0.015625 0.930835
-0.28125 -0.015625 0.897242
-0.265625 -0.015625 0.87729
-0.265625 0 0.877278
-0.28125 0 0.897234
-0.265625 -0.015625 0.87729
-0.25 -0.015625 0.855307
-0.25 0 0.855291
-0.265625 0 0.877278
-0.265625 -0.03125 0.877319
-0.25 -0.03125 0.855346
-0.25 -0.015625 0.855307
-0.265625 -0.015625 0.87729
-0.28125 -0.03125 0.897264
-0.265625 -0.03125 0.877319
-0.265625 -0.015625 0.87729
-0.28125 -0.015625 0.897242
-0.28125 -0.046875 0.897294
-0.265625 -0.046875 0.877357
-0.265625 -0.03125 0.877319
-0.28125 -0.03125 0.897264
-0.265625 -0.046875 0.877357
-0.25 -0.046875 0.855392
-0.25 -0.03125 0.855346
-0.265625 -0.03125 0.877319
-0.265625 -0.0625 0.877404
-0.25 -0.0625 0.855447
-0.25 -0.046875 0.855392
-0.265625 -0.046875 0.877357
-0.28125 -0.0625 0.897332
-0.265625 -0.0625 0.877404
-0.265625 -0.046875 0.877357
-0.28125 -0.046875 0.897294
-0.3125 -0.046875 0.930863
-0.296875 -0.046875 0.915137
-0.296875 -0.03125 0.915114
-0.3125 -0.03125 0.930846
-0.296875 -0.046875 0.915137
-0.28125 -0.046875 0.897294
-0.28125 -0.03125 0.897264
-0.296875 -0.03125 0.915114
-0.296875 -0.0625 0.915168
-0.28125 -0.0625 0.897332
-0.28125 -0.046875 0.897294
-0.296875 -0.046875 0.915137
-0.3125 -0.0625 0.930886
-0.296875 -0.0625 0.915168
-0.296875 -0.046875 0.915137
-0.3125 -0.046875 0.930863
-0.3125 -0.078125 0.930918
-0.296875 -0.078125 0.915207
-0.296875 -0.0625 0.915168
-0.3125 -0.0625 0.930886
-0.296875 -0.078125 0.915207
-0.28125 -0.078125 0.897381
-0.28125 -0.0625 0.897332
-0.296875 -0.0625 0.915168
-0.296875 -0.09375 0.915256
-0.28125 -0.09375 0.89744
-0.28125 -0.078125 0.897381
-0.296875 -0.078125 0.915207
-0.3125 -0.09375 0.930956
-0.296875 -0.09375 0.915256
-0.296875 -0.078125 0.915207
-0.3125 -0.078125 0.930918
-0.28125 -0.078125 0.897381
-0.265625 -0.078125 0.877461
-0.265625 -0.0625 0.877404
-0.28125 -0.0625 0.897332
-0.265625 -0.078125 0.877461
-0.25 -0.078125 0.855512
-0.25 -0.0625 0.855447
-0.265625 -0.0625 0.877404
-0.265625 -0.09375 0.87753
-0.25 -0.09375 0.855589
-0.25 -0.078125 0.855512
-0.265625 -0.078125 0.877461
-0.28125 -0.09375 0.89744
-0.265625 -0.09375 0.87753
-0.265625 -0.078125 0.877461
-0.28125 -0.078125 0.897381
-0.28125 -0.109375 0.897509
-0.265625 -0.109375 0.877611
-0.265625 -0.09375 0.87753
-0.28125 -0.09375 0.89744
[...]
POINT_DATA 19320
SCALARS "pressure" float 1
LOOKUP_TABLE default
0.996525
0.99653
0.99653
0.996525
0.99653
0.995314
0.995328
0.99653
0.995314
0.992514
0.992514
0.995328
0.995319
0.992516
0.992514
0.995314
0.99653
0.995319
0.995314
0.99653
0.99653
0.995311
0.995319
0.99653
0.995311
0.992519
0.992516
0.995319
0.995312
0.992522
0.992519
0.995311
0.99653
0.995312
0.995311
0.99653
0.996525
0.99653
0.99653
0.996525
0.992514
0.989359
0.989358
0.992514
0.989359
0.985398
0.985396
0.989358
0.989364
0.985404
0.985398
0.989359
0.992516
0.989364
0.989359
0.992514
0.985398
0.980306
0.980305
0.985396
0.980306
0.973852
0.973852
0.980305
0.98031
0.973854
0.973852
0.980306
0.985404
0.98031
0.980306
0.985398
0.985411
0.980316
0.98031
0.985404
0.980316
0.973859
0.973854
0.98031
0.980321
0.973866
0.973859
0.980316
0.985416
0.980321
0.980316
0.985411
0.992519
0.989369
0.989364
0.992516
0.989369
0.985411
0.985404
0.989364
0.989374
0.985416
0.985411
0.989369
0.992522
0.989374
0.989369
0.992519
0.992524
0.989376
0.989374
0.992522
0.989376
0.985418
0.985416
0.989374
0.989378
0.985421
0.985418
0.989376
0.992525
0.989378
0.989376
0.992524
0.985418
0.980327
0.980321
0.985416
0.980327
0.973876
0.973866
0.980321
0.980334
0.973887
0.973876
0.980327
0.985421
0.980334
0.980327
0.985418
0.985424
0.980341
0.980334
0.985421
0.980341
0.973899
0.973887
0.980334
0.980348
0.973911
0.973899
0.980341
0.985427
0.980348
0.980341
0.985424
0.992526
0.98938
0.989378
0.992525
0.98938
0.985424
0.985421
0.989378
0.989381
0.985427
0.985424
0.98938
0.992526
0.989381
0.98938
0.992526
0.996524
0.996529
0.99653
0.996525
0.996529
0.9953
0.995312
0.99653
0.9953
0.992524
0.992522
0.995312
0.995299
0.992525
0.992524
0.9953
0.996529
0.995299
0.9953
0.996529
0.996529
0.995283
0.995299
0.996529
0.995283
0.992526
0.992525
0.995299
0.995278
0.992526
0.992526
0.995283
0.996528
0.995278
0.995283
0.996529
0.996521
0.996528
0.996529
0.996524
0.973852
0.965841
0.965841
0.973852
0.965841
0.956101
0.956101
0.965841
0.965843
0.956105
0.956101
0.965841
0.973854
0.965843
0.965841
0.973852
0.956101
0.944476
0.944474
0.956101
0.944476
0.930835
0.930832
0.944474
0.944482
0.930846
0.930835
0.944476
0.956105
0.944482
0.944476
0.956101
0.956113
0.944494
0.944482
0.956105
0.944494
0.930863
0.930846
0.944482
0.944512
0.930886
0.930863
0.944494
0.956125
0.944512
0.944494
0.956113
0.973859
0.965849
0.965843
0.973854
0.965849
0.956113
0.956105
0.965843
0.965858
0.956125
0.956113
0.965849
0.973866
0.965858
0.965849
0.973859
0.930835
0.915098
0.915093
0.930832
0.915098
0.897242
0.897234
0.915093
0.915114
0.897264
0.897242
0.915098
0.930846
0.915114
0.915098
0.930835
0.897242
0.87729
0.877278
0.897234
0.87729
0.855307
0.855291
0.877278
0.877319
0.855346
0.855307
0.87729
0.897264
0.877319
0.87729
0.897242
0.897294
0.877357
0.877319
0.897264
0.877357
0.855392
0.855346
0.877319
0.877404
0.855447
0.855392
0.877357
0.897332
0.877404
0.877357
0.897294
0.930863
0.915137
0.915114
0.930846
0.915137
0.897294
0.897264
0.915114
0.915168
0.897332
0.897294
0.915137
0.930886
0.915168
0.915137
0.930863
0.930918
0.915207
0.915168
0.930886
0.915207
0.897381
0.897332
0.915168
0.915256
0.89744
0.897381
0.915207
0.930956
0.915256
0.915207
0.930918
0.897381
0.877461
0.877404
0.897332
0.877461
0.855512
0.855447
0.877404
0.87753
0.855589
0.855512
0.877461
0.89744
0.87753
0.877461
0.897381
0.897509
0.877611
0.87753
0.89744
0.877611
0.855679
0.855589
0.87753
0.877701
0.85578
0.855679
0.877611
0.897586
0.877701
0.877611
0.897509
0.931002
0.915313
0.915256
0.930956
0.915313
0.897509
0.89744
0.915256
0.915377
0.897586
0.897509
0.915313
0.931052
0.915377
0.915313
0.931002
0.973876
0.965871
0.965858
0.973866
0.965871
0.956143
0.956125
0.965858
0.965887
0.956165
0.956143
0.965871
0.973887
0.965887
0.965871
0.973876
0.956143
0.944536
0.944512
0.956125
0.944536
0.930918
0.930886
0.944512
0.944566
0.930956
0.930918
0.944536
0.956165
0.944566
0.944536
0.956143
0.95619
0.9446
0.944566
0.956165
0.9446
0.931002
0.930956
0.944566
0.944638
0.931052
0.931002
0.9446
0.956218
0.944638
0.9446
0.95619
0.973899
0.965905
0.965887
0.973887
0.965905
0.95619
0.956165
0.965887
0.965924
0.956218
0.95619
0.965905
0.973911
0.965924
0.965905
0.973899
0.973924
0.965945
0.965924
0.973911
0.965945
0.956248
0.956218
0.965924
0.965966
0.956279
0.956248
0.965945
0.973936
0.965966
0.965945
0.973924
0.956248
0.94468
0.944638
0.956218
0.94468
0.931107
0.931052
0.944638
0.944722
0.931162
0.931107
0.94468
0.956279
0.944722
0.94468
0.956248
0.956309
0.944763
0.944722
0.956279
0.944763
0.931216
0.931162
0.944722
0.9448
0.931265
0.931216
0.944763
0.956335
0.9448
0.944763
0.956309
0.973948
0.965985
0.965966
0.973936
0.965985
0.956309
0.956279
0.965966
0.966003
0.956335
0.956309
0.965985
0.973959
0.966003
0.965985
0.973948
0.931107
0.915446
0.915377
0.931052
0.915446
0.89767
0.897586
0.915377
0.915516
0.897756
0.89767
0.915446
0.931162
0.915516
0.915446
0.931107
0.89767
0.877799
0.877701
0.897586
0.877799
0.85589
0.85578
0.877701
0.877899
0.856003
0.85589
0.877799
0.897756
0.877899
0.877799
0.89767
0.89784
0.877998
0.877899
0.897756
0.877998
0.856115
0.856003
0.877899
0.87809
0.856219
0.856115
0.877998
0.897918
0.87809
0.877998
0.89784
0.931216
0.915585
0.915516
0.931162
0.915585
0.89784
0.897756
0.915516
0.915648
0.897918
0.89784
0.915585
0.931265
0.915648
0.915585
0.931216
0.931307
0.915702
0.915648
0.931265
0.915702
0.897984
0.897918
0.915648
0.915743
0.898036
0.897984
0.915702
0.931338
0.915743
0.915702
0.931307
0.897984
0.878168
0.87809
0.897918
0.878168
0.856308
0.856219
0.87809
0.878229
0.856377
0.856308
0.878168
0.898036
0.878229
0.878168
0.897984
0.898068
0.878267
0.878229
0.898036
0.878267
0.85642
0.856377
0.878229
0.87828
0.856435
0.85642
0.878267
0.898079
0.87828
0.878267
0.898068
0.931358
0.915769
0.915743
0.931338
0.915769
0.898068
0.898036
0.915743
0.915778
0.898079
0.898068
0.915769
0.931365
0.915778
0.915769
0.931358
0.973969
0.966019
0.966003
0.973959
0.966019
0.956357
0.956335
0.966003
0.966031
0.956374
0.956357
0.966019
0.973977
0.966031
0.966019
0.973969
0.956357
0.94483
0.9448
0.956335
0.94483
0.931307
0.931265
0.9448
0.944854
0.931338
0.931307
0.94483
0.956374
0.944854
0.94483
0.956357
0.956385
0.944868
0.944854
0.956374
0.944868
0.931358
0.931338
0.944854
0.944873
0.931365
0.931358
0.944868
0.956388
0.944873
0.944868
0.956385
0.973984
0.966038
0.966031
0.973977
0.966038
0.956385
0.956374
0.966031
0.966041
0.956388
0.956385
0.966038
0.973986
0.966041
0.966038
0.973984
0.99652
0.996526
0.996528
0.996521
0.996527
0.995258
0.995278
0.996528
0.995258
0.992523
0.992526
0.995278
0.995249
0.99252
0.992523
0.995258
0.996526
0.995249
0.995258
0.996527
0.996524
0.995224
0.995249
0.996526
0.995224
0.99252
0.99252
0.995249
0.99521
0.992522
0.99252
0.995224
0.996522
0.99521
0.995224
0.996524
0.996518
0.996522
0.996526
0.99652
0.992523
0.989379
0.989381
0.992526
0.989379
0.985427
0.985427
0.989381
0.989377
0.985426
0.985427
0.989379
0.99252
0.989377
0.989379
0.992523
0.985427
0.980353
0.980348
0.985427
0.980353
0.973924
0.973911
0.980348
0.980359
0.973936
0.973924
0.980353
0.985426
0.980359
0.980353
0.985427
0.985426
0.980364
0.980359
0.985426
0.980364
0.973948
0.973936
0.980359
0.980369
0.973959
0.973948
0.980364
0.985429
0.980369
0.980364
0.985426
0.99252
0.989377
0.989377
0.99252
0.989377
0.985426
0.985426
0.989377
0.989382
0.985429
0.985426
0.989377
0.992522
0.989382
0.989377
0.99252
0.992521
0.989387
0.989382
0.992522
0.989387
0.985435
0.985429
0.989382
0.989391
0.985444
0.985435
0.989387
0.99251
0.989391
0.989387
0.992521
0.985435
0.980376
0.980369
0.985429
0.980376
0.973969
0.973959
0.980369
0.980384
0.973977
0.973969
0.980376
0.985444
0.980384
0.980376
0.985435
0.985451
0.98039
0.980384
0.985444
0.98039
0.973984
0.973977
0.980384
0.980392
0.973986
0.973984
0.98039
0.985454
0.980392
0.98039
0.985451
0.992494
0.989393
0.989391
0.99251
0.989393
0.985451
0.985444
0.989391
0.989393
0.985454
0.985451
0.989393
0.992487
0.989393
0.989393
0.992494
0.996517
0.996518
0.996522
0.996518
0.99652
0.995183
0.99521
0.996522
0.995183
0.992521
0.992522
0.99521
0.99517
0.99251
0.992521
0.995183
0.996518
0.99517
0.995183
0.99652
0.996517
0.995148
0.99517
0.996518
0.995148
0.992494
0.99251
0.99517
0.995149
0.992487
0.992494
0.995148
0.996516
0.995149
0.995148
0.996517
0.996516
0.996516
0.996518
0.996517
0.855307
0.831402
0.831381
0.855291
0.831402
0.805714
0.805688
0.831381
0.83145
0.805772
0.805714
0.831402
0.855346
0.83145
0.831402
0.855307
0.805714
0.778406
0.778375
0.805688
0.778406
0.749644
0.74961
0.778375
0.778473
0.749717
0.749644
0.778406
0.805772
0.778473
0.778406
0.805714
0.805834
0.77854
0.778473
0.805772
0.77854
0.749786
0.749717
0.778473
0.778606
0.749847
0.749786
0.77854
0.805899
0.778606
0.77854
0.805834
0.855392
0.831505
0.83145
0.855346
0.831505
0.805834
0.805772
0.83145
0.831566
0.805899
0.805834
0.831505
0.855447
0.831566
0.831505
0.855392
0.749644
0.719589
0.719555
0.74961
0.719589
0.688412
0.688381
0.719555
0.719661
0.688472
0.688412
0.719589
0.749717
0.719661
0.719589
0.749644
0.688412
0.656331
0.656311
0.688381
0.656331
0.623585
0.623581
0.656311
0.656367
0.623588
0.623585
0.656331
0.688472
0.656367
0.656331
0.688412
0.688519
0.656383
0.656367
0.688472
0.656383
0.623568
0.623588
0.656367
0.656367
0.623498
0.623568
0.656383
0.688543
0.656367
0.656383
0.688519
0.749786
0.719725
0.719661
0.749717
0.719725
0.688519
0.688472
0.719661
0.719774
0.688543
0.688519
0.719725
0.749847
0.719774
0.719725
0.749786
0.749907
0.719814
0.719774
0.749847
0.719814
0.68855
0.688543
0.719774
0.719851
0.688547
0.68855
0.719814
0.749969
0.719851
0.719814
0.749907
0.68855
0.65632
0.656367
0.688543
0.65632
0.623366
0.623498
0.656367
0.65626
0.623211
0.623366
0.65632
0.688547
0.65626
0.65632
0.68855
0.688544
0.656204
0.65626
0.688547
0.656204
0.623076
0.623211
0.65626
0.656164
0.622973
0.623076
0.656204
0.688552
0.656164
0.656204
0.688544
0.75004
0.71989
0.719851
0.749969
0.71989
0.688544
0.688547
0.719851
0.71994
0.688552
0.688544
0.71989
0.750121
0.71994
0.71989
0.75004
0.855512
0.831636
0.831566
0.855447
0.831636
0.805972
0.805899
0.831566
0.831719
0.806056
0.805972
0.831636
0.855589
0.831719
0.831636
0.855512
0.805972
0.778675
0.778606
0.805899
0.778675
0.749907
0.749847
0.778606
0.778753
0.749969
0.749907
0.778675
0.806056
0.778753
0.778675
0.805972
0.806152
0.778842
0.778753
0.806056
0.778842
0.75004
0.749969
0.778753
0.778943
0.750121
0.75004
0.778842
0.806261
0.778943
0.778842
0.806152
0.855679
0.831815
0.831719
0.855589
0.831815
0.806152
0.806056
0.831719
0.831923
0.806261
0.806152
0.831815
0.85578
0.831923
0.831815
0.855679
0.623585
0.590016
0.590029
0.623581
0.590016
0.554098
0.554129
0.590029
0.589987
0.554036
0.554098
0.590016
0.623588
0.589987
0.590016
0.623585
0.554098
0.512428
0.512534
0.554129
0.512428
0.462394
0.462641
0.512534
0.512206
0.461768
0.462394
0.512428
0.554036
0.512206
0.512428
0.554098
0.553987
0.511983
0.512206
0.554036
0.511983
0.460973
0.461768
0.512206
0.511935
0.459995
0.460973
0.511983
0.553924
0.511935
0.511983
0.553987
0.623568
0.589948
0.589987
0.623588
0.589948
0.553987
0.554036
0.589987
0.589837
0.553924
0.553987
0.589948
0.623498
0.589837
0.589948
0.623568
0.462394
0.40718
0.40746
0.462641
0.40739
0.36109
0.36147
0.40746
0.36109
0.347962
0.348213
0.36147
0.360815
0.347714
0.347962
0.36109
0.40732
0.360815
0.36109
0.40739
0.347962
0.346072
0.346341
0.348213
0.346072
0.345962
0.34613
0.346341
0.345824
0.345679
0.345962
0.346072
0.347714
0.345824
0.346072
0.347962
0.347494
0.3456
0.345824
0.347714
0.3456
0.345423
0.345679
0.345824
0.34541
0.345188
0.345423
0.3456
0.347316
0.34541
0.3456
0.347494
0.40725
0.360498
0.360815
0.40732
0.360498
0.347494
0.347714
0.360815
0.360223
0.347316
0.347494
0.360498
0.40718
0.360223
0.360498
0.40725
0.407005
0.359745
0.360223
0.40718
0.359745
0.347168
0.347316
0.360223
0.359333
0.347059
0.347168
0.359745
0.40683
0.359333
0.359745
0.407005
0.347168
0.345262
0.34541
0.347316
0.345262
0.344987
0.345188
0.34541
0.345155
0.344828
0.344987
0.345262
0.347059
0.345155
0.345262
0.347168
0.346995
0.345094
0.345155
0.347059
0.345094
0.344708
0.344828
0.345155
0.345087
0.344633
0.344708
0.345094
0.346951
0.345087
0.345094
0.346995
0.406654
0.35894
0.359333
0.40683
0.35894
0.346995
0.347059
0.359333
0.358646
0.346951
0.346995
0.35894
0.406479
0.358646
0.35894
0.406654
0.461768
0.406479
0.40718
0.462394
0.345962
0.344291
0.34443
0.34613
0.344291
0.341344
0.341438
0.34443
0.344048
0.341194
0.341344
0.344291
0.345679
0.344048
0.344291
0.345962
0.341344
0.338481
0.338515
0.341438
0.338481
0.337968
0.337916
0.338515
0.338443
0.338021
0.337968
0.338481
0.341194
0.338443
0.338481
0.341344
0.341108
0.338463
0.338443
0.341194
0.338463
0.338073
0.338021
0.338443
0.338532
0.338126
0.338073
0.338463
0.341035
0.338532
0.338463
0.341108
0.345423
0.343852
0.344048
0.345679
0.343852
0.341108
0.341194
0.344048
0.343676
0.341035
0.341108
0.343852
0.345188
0.343676
0.343852
0.345423
0.338126
0.336942
0.336712
0.337916
0.33899
0.337656
0.336942
0.338126
0.344987
0.343525
0.343676
0.345188
0.343525
0.340974
0.341035
0.343676
0.343435
0.34099
0.340974
0.343525
0.344828
0.343435
0.343525
0.344987
0.340974
0.338685
0.338532
0.341035
0.338685
0.338342
0.338126
0.338532
0.338786
0.338558
0.338342
0.338685
0.34099
0.338786
0.338685
0.340974
0.341103
0.339019
0.338786
0.34099
0.339019
0.338774
0.338558
0.338786
0.339274
0.33899
0.338774
0.339019
0.341302
0.339274
0.339019
0.341103
0.344708
0.343403
0.343435
0.344828
0.343403
0.341103
0.34099
0.343435
0.343422
0.341302
0.341103
0.343403
0.344633
0.343422
0.343403
0.344708
0.344618
0.343501
0.343422
0.344633
0.343501
0.341519
0.341302
0.343422
0.343671
0.341827
0.341519
0.343501
0.34466
0.343671
0.343501
0.344618
0.341519
0.339631
0.339274
0.341302
0.339631
0.339442
0.33899
0.339274
0.340079
0.339894
0.339442
0.339631
0.341827
0.340079
0.339631
0.341519
0.342287
0.340738
0.340079
0.341827
0.340738
0.340345
0.339894
0.340079
0.341297
0.340797
0.340345
0.340738
0.342861
0.341297
0.340738
0.342287
0.344761
0.343938
0.343671
0.34466
0.343938
0.342287
0.341827
0.343671
0.344286
0.342861
0.342287
0.343938
0.344927
0.344286
0.343938
0.344761
0.340797
0.338885
0.337656
0.33899
0.342901
0.340382
0.338885
0.340797
0.345167
0.344702
0.344286
0.344927
0.344702
0.343488
0.342861
0.344286
0.345157
0.344132
0.343488
0.344702
0.345459
0.345157
0.344702
0.345167
0.343488
0.341994
0.341297
0.342861
0.341994
0.341323
0.340797
0.341297
0.342766
0.341849
0.341323
0.341994
0.344132
0.342766
0.341994
0.343488
0.344695
0.343312
0.342766
0.344132
0.343312
0.342375
0.341849
0.342766
0.343842
0.342901
0.342375
0.343312
0.345207
0.343842
0.343312
0.344695
0.345793
0.345617
0.345157
0.345459
0.345617
0.344695
0.344132
0.345157
0.346071
0.345207
0.344695
0.345617
0.346158
0.346071
0.345617
0.345793
0.460973
0.405825
0.406479
0.461768
0.406315
0.358223
0.358646
0.406479
0.358223
0.346928
0.346951
0.358646
0.357936
0.346914
0.346928
0.358223
0.406152
0.357936
0.358223
0.406315
0.346928
0.345076
0.345087
0.346951
0.345076
0.344618
0.344633
0.345087
0.345059
0.34466
0.344618
0.345076
0.346914
0.345059
0.345076
0.346928
0.346888
0.345094
0.345059
0.346914
0.345094
0.344761
0.34466
0.345059
0.345185
0.344927
0.344761
0.345094
0.346893
0.345185
0.345094
0.346888
0.405989
0.357731
0.357936
0.406152
0.357731
0.346888
0.346914
0.357936
0.357636
0.346893
0.346888
0.357731
0.405825
0.357636
0.357731
0.405989
0.40576
0.357386
0.357636
0.405825
0.357386
0.346943
0.346893
0.357636
0.357233
0.347053
0.346943
0.357386
0.405695
0.357233
0.357386
0.40576
0.346943
0.34534
0.345185
0.346893
0.34534
0.345167
0.344927
0.345185
0.345566
0.345459
0.345167
0.34534
0.347053
0.345566
0.34534
0.346943
0.347227
0.345845
0.345566
0.347053
0.345845
0.345793
0.345459
0.345566
0.346168
0.346158
0.345793
0.345845
0.347462
0.346168
0.345845
0.347227
0.405631
0.357161
0.357233
0.405695
0.357161
0.347227
0.347053
0.357233
0.357246
0.347462
0.347227
0.357161
0.405566
0.357246
0.357161
0.405631
0.459995
0.405566
0.405825
0.460973
0.458678
0.40598
0.405566
0.459995
0.40567
0.357261
0.357246
0.405566
0.357261
0.347745
0.347462
0.357246
0.357442
0.348078
0.347745
0.357261
0.405773
0.357442
0.357261
0.40567
0.347745
0.346523
0.346168
0.347462
0.346523
0.346552
0.346158
0.346168
0.346907
0.346956
0.346552
0.346523
0.348078
0.346907
0.346523
0.347745
0.348448
0.347301
0.346907
0.348078
0.347301
0.347362
0.346956
0.346907
0.3477
0.34778
0.347362
0.347301
0.348841
0.3477
0.347301
0.348448
0.405877
0.357762
0.357442
0.405773
0.357762
0.348448
0.348078
0.357442
0.35825
0.348841
0.348448
0.357762
0.40598
0.35825
0.357762
0.405877
0.406213
0.358632
0.35825
0.40598
0.358632
0.349248
0.348841
0.35825
0.359176
0.349679
0.349248
0.358632
0.406446
0.359176
0.358632
0.406213
0.349248
0.348109
0.3477
0.348841
0.348109
0.348212
0.34778
0.3477
0.348532
0.348647
0.348212
0.348109
0.349679
0.348532
0.348109
0.349248
0.350134
0.348961
0.348532
0.349679
0.348961
0.349082
0.348647
0.348532
0.349392
0.349526
0.349082
0.348961
0.350601
0.349392
0.348961
0.350134
0.406679
0.359829
0.359176
0.406446
0.359829
0.350134
0.349679
0.359176
0.36061
0.350601
0.350134
0.359829
0.406912
0.36061
0.359829
0.406679
0.460533
0.406912
0.40598
0.458678
0.346552
0.346501
0.346071
0.346158
0.346501
0.345647
0.345207
0.346071
0.346898
0.345995
0.345647
0.346501
0.346956
0.346898
0.346501
0.346552
0.345647
0.344281
0.343842
0.345207
0.344281
0.343223
0.342901
0.343842
0.344593
0.343546
0.343223
0.344281
0.345995
0.344593
0.344281
0.345647
0.34626
0.344793
0.344593
0.345995
0.344793
0.343868
0.343546
0.344593
0.344903
0.34419
0.343868
0.344793
0.346469
0.344903
0.344793
0.34626
0.347362
0.34726
0.346898
0.346956
0.34726
0.34626
0.345995
0.346898
0.347597
0.346469
0.34626
0.34726
0.34778
0.347597
0.34726
0.347362
0.34419
0.341626
0.340382
0.342901
0.344811
0.342536
0.341626
0.34419
0.348212
0.347925
0.347597
0.34778
0.347925
0.346659
0.346469
0.347597
0.348247
0.346845
0.346659
0.347925
0.348647
0.348247
0.347925
0.348212
0.346659
0.344989
0.344903
0.346469
0.344989
0.344345
0.34419
0.344903
0.345065
0.344501
0.344345
0.344989
0.346845
0.345065
0.344989
0.346659
0.34702
0.345138
0.345065
0.346845
0.345138
0.344656
0.344501
0.345065
0.345238
0.344811
0.344656
0.345138
0.347126
0.345238
0.345138
0.34702
0.349082
0.34857
0.348247
0.348647
0.34857
0.34702
0.346845
0.348247
0.348883
0.347126
0.34702
0.34857
0.349526
0.348883
0.34857
0.349082
0.349993
0.349201
0.348883
0.349526
0.349201
0.34718
0.347126
0.348883
0.349563
0.347327
0.34718
0.349201
0.350492
0.349563
0.349201
0.349993
0.34718
0.345595
0.345238
0.347126
0.345595
0.344992
0.344811
0.345238
0.345671
0.345173
0.344992
0.345595
0.347327
0.345671
0.345595
0.34718
0.347599
0.345746
0.345671
0.347327
0.345746
0.345355
0.345173
0.345671
0.345825
0.345536
0.345355
0.345746
0.347948
0.345825
0.345746
0.347599
0.351025
0.349984
0.349563
0.350492
0.349984
0.347599
0.347327
0.349563
0.350447
0.347948
0.347599
0.349984
0.351604
0.350447
0.349984
0.351025
0.345536
0.343575
0.342536
0.344811
0.346724
0.345146
0.343575
0.345536
0.352247
0.350925
0.350447
0.351604
0.350925
0.348274
0.347948
0.350447
0.351432
0.348552
0.348274
0.350925
0.35292
0.351432
0.350925
0.352247
0.348274
0.346163
0.345825
0.347948
0.346163
0.345833
0.345536
0.345825
0.346656
0.34613
0.345833
0.346163
0.348552
0.346656
0.346163
0.348274
0.349082
0.346728
0.346656
0.348552
0.346728
0.346427
0.34613
0.346656
0.347073
0.346724
0.346427
0.346728
0.349688
0.347073
0.346728
0.349082
0.353588
0.352007
0.351432
0.35292
0.352007
0.349082
0.348552
0.351432
0.352611
0.349688
0.349082
0.352007
0.35424
0.352611
0.352007
0.353588
0.46109
0.407871
0.406912
0.460533
0.407152
0.361278
0.36061
0.406912
0.361278
0.351076
0.350601
0.36061
0.362081
0.351574
0.351076
0.361278
0.407391
0.362081
0.361278
0.407152
0.351076
0.349831
0.349392
0.350601
0.349831
0.349993
0.349526
0.349392
0.350291
0.350492
0.349993
0.349831
0.351574
0.350291
0.349831
0.351076
0.352096
0.35078
0.350291
0.351574
0.35078
0.351025
0.350492
0.350291