# vtk DataFile Version 2.0

ASCII

DATASET UNSTRUCTURED_GRID
POINTS 19330 float
-0.5 -0.03125 0.997517
-0.46875 -0.03125 0.99752
-0.46875 0 0.99752
-0.5 0 0.997517
-0.46875 -0.015625 0.99752
-0.453125 -0.015625 0.996652
-0.453125 0 0.996662
-0.46875 0 0.99752
-0.453125 -0.015625 0.996652
-0.4375 -0.015625 0.994651
-0.4375 0 0.99465
-0.453125 0 0.996662
-0.453125 -0.03125 0.996656
-0.4375 -0.03125 0.994652
-0.4375 -0.015625 0.994651
-0.453125 -0.015625 0.996652
-0.46875 -0.03125 0.99752
-0.453125 -0.03125 0.996656
-0.453125 -0.015625 0.996652
-0.46875 -0.015625 0.99752
-0.46875 -0.046875 0.99752
-0.453125 -0.046875 0.99665
-0.453125 -0.03125 0.996656
-0.46875 -0.03125 0.99752
-0.453125 -0.046875 0.99665
-0.4375 -0.046875 0.994655
-0.4375 -0.03125 0.994652
-0.453125 -0.03125 0.996656
-0.453125 -0.0625 0.99665
-0.4375 -0.0625 0.994657
-0.4375 -0.046875 0.994655
-0.453125 -0.046875 0.99665
-0.46875 -0.0625 0.99752
-0.453125 -0.0625 0.99665
-0.453125 -0.046875 0.99665
-0.46875 -0.046875 0.99752
-0.5 -0.0625 0.997516
-0.46875 -0.0625 0.99752
-0.46875 -0.03125 0.99752
-0.5 -0.03125 0.997517
-0.4375 -0.015625 0.994651
-0.421875 -0.015625 0.992396
-0.421875 0 0.992395
-0.4375 0 0.99465
-0.421875 -0.015625 0.992396
-0.40625 -0.015625 0.989565
-0.40625 0 0.989563
-0.421875 0 0.992395
-0.421875 -0.03125 0.992399
-0.40625 -0.03125 0.989569
-0.40625 -0.015625 0.989565
-0.421875 -0.015625 0.992396
-0.4375 -0.03125 0.994652
-0.421875 -0.03125 0.992399
-0.421875 -0.015625 0.992396
-0.4375 -0.015625 0.994651
-0.40625 -0.015625 0.989565
-0.390625 -0.015625 0.985922
-0.390625 0 0.985921
-0.40625 0 0.989563
-0.390625 -0.015625 0.985922
-0.375 -0.015625 0.9813
-0.375 0 0.9813
-0.390625 0 0.985921
-0.390625 -0.03125 0.985925
-0.375 -0.03125 0.981301
-0.375 -0.015625 0.9813
-0.390625 -0.015625 0.985922
-0.40625 -0.03125 0.989569
-0.390625 -0.03125 0.985925
-0.390625 -0.015625 0.985922
-0.40625 -0.015625 0.989565
-0.40625 -0.046875 0.989574
-0.390625 -0.046875 0.985929
-0.390625 -0.03125 0.985925
-0.40625 -0.03125 0.989569
-0.390625 -0.046875 0.985929
-0.375 -0.046875 0.981305
-0.375 -0.03125 0.981301
-0.390625 -0.03125 0.985925
-0.390625 -0.0625 0.985933
-0.375 -0.0625 0.98131
-0.375 -0.046875 0.981305
-0.390625 -0.046875 0.985929
-0.40625 -0.0625 0.989577
-0.390625 -0.0625 0.985933
-0.390625 -0.046875 0.985929
-0.40625 -0.046875 0.989574
-0.4375 -0.046875 0.994655
-0.421875 -0.046875 0.992404
-0.421875 -0.03125 0.992399
-0.4375 -0.03125 0.994652
-0.421875 -0.046875 0.992404
-0.40625 -0.046875 0.989574
-0.40625 -0.03125 0.989569
-0.421875 -0.03125 0.992399
-0.421875 -0.0625 0.992407
-0.40625 -0.0625 0.989577
-0.40625 -0.046875 0.989574
-0.421875 -0.046875 0.992404
-0.4375 -0.0625 0.994657
-0.421875 -0.0625 0.992407
-0.421875 -0.046875 0.992404
-0.4375 -0.046875 0.994655
-0.4375 -0.078125 0.994658
-0.421875 -0.078125 0.992408
-0.421875 -0.0625 0.992407
-0.4375 -0.0625 0.994657
-0.421875 -0.078125 0.992408
-0.40625 -0.078125 0.989579
-0.40625 -0.0625 0.989577
-0.421875 -0.0625 0.992407
-0.421875 -0.09375 0.992409
-0.40625 -0.09375 0.989581
-0.40625 -0.078125 0.989579
-0.421875 -0.078125 0.992408
-0.4375 -0.09375 0.994659
-0.421875 -0.09375 0.992409
-0.421875 -0.078125 0.992408
-0.4375 -0.078125 0.994658
-0.40625 -0.078125 0.989579
-0.390625 -0.078125 0.985937
-0.390625 -0.0625 0.985933
-0.40625 -0.0625 0.989577
-0.390625 -0.078125 0.985937
-0.375 -0.078125 0.981317
-0.375 -0.0625 0.98131
-0.390625 -0.0625 0.985933
-0.390625 -0.09375 0.985942
-0.375 -0.09375 0.981325
-0.375 -0.078125 0.981317
-0.390625 -0.078125 0.985937
-0.40625 -0.09375 0.989581
-0.390625 -0.09375 0.985942
-0.390625 -0.078125 0.985937
-0.40625 -0.078125 0.989579
-0.40625 -0.109375 0.989583
-0.390625 -0.109375 0.985947
-0.390625 -0.09375 0.985942
-0.40625 -0.09375 0.989581
-0.390625 -0.109375 0.985947
-0.375 -0.109375 0.981333
-0.375 -0.09375 0.981325
-0.390625 -0.09375 0.985942
-0.390625 -0.125 0.985952
-0.375 -0.125 0.981342
-0.375 -0.109375 0.981333
-0.390625 -0.109375 0.985947
-0.40625 -0.125 0.989585
-0.390625 -0.125 0.985952
-0.390625 -0.109375 0.985947
-0.40625 -0.109375 0.989583
-0.4375 -0.109375 0.994659
-0.421875 -0.109375 0.992411
-0.421875 -0.09375 0.992409
-0.4375 -0.09375 0.994659
-0.421875 -0.109375 0.992411
-0.40625 -0.109375 0.989583
-0.40625 -0.09375 0.989581
-0.421875 -0.09375 0.992409
-0.421875 -0.125 0.992412
-0.40625 -0.125 0.989585
-0.40625 -0.109375 0.989583
-0.421875 -0.109375 0.992411
-0.4375 -0.125 0.994659
-0.421875 -0.125 0.992412
-0.421875 -0.109375 0.992411
-0.4375 -0.109375 0.994659
-0.5 -0.09375 0.997516
-0.46875 -0.09375 0.99752
-0.46875 -0.0625 0.99752
-0.5 -0.0625 0.997516
-0.46875 -0.078125 0.99752
-0.453125 -0.078125 0.996642
-0.453125 -0.0625 0.99665
-0.46875 -0.0625 0.99752
-0.453125 -0.078125 0.996642
-0.4375 -0.078125 0.994658
-0.4375 -0.0625 0.994657
-0.453125 -0.0625 0.99665
-0.453125 -0.09375 0.996641
-0.4375 -0.09375 0.994659
-0.4375 -0.078125 0.994658
-0.453125 -0.078125 0.996642
-0.46875 -0.09375 0.99752
-0.453125 -0.09375 0.996641
-0.453125 -0.078125 0.996642
-0.46875 -0.078125 0.99752
-0.46875 -0.109375 0.997519
-0.453125 -0.109375 0.99663
-0.453125 -0.09375 0.996641
-0.46875 -0.09375 0.99752
-0.453125 -0.109375 0.99663
-0.4375 -0.109375 0.994659
-0.4375 -0.09375 0.994659
-0.453125 -0.09375 0.996641
-0.453125 -0.125 0.996627
-0.4375 -0.125 0.994659
-0.4375 -0.109375 0.994659
-0.453125 -0.109375 0.99663
-0.46875 -0.125 0.997519
-0.453125 -0.125 0.996627
-0.453125 -0.109375 0.99663
-0.46875 -0.109375 0.997519
-0.5 -0.125 0.997514
-0.46875 -0.125 0.997519
-0.46875 -0.09375 0.99752
-0.5 -0.09375 0.997516
-0.375 -0.015625 0.9813
-0.359375 -0.015625 0.975555
-0.359375 0 0.975555
-0.375 0 0.9813
-0.359375 -0.015625 0.975555
-0.34375 -0.015625 0.968556
-0.34375 0 0.968556
-0.359375 0 0.975555
-0.359375 -0.03125 0.975556
-0.34375 -0.03125 0.968558
-0.34375 -0.015625 0.968556
-0.359375 -0.015625 0.975555
-0.375 -0.03125 0.981301
-0.359375 -0.03125 0.975556
-0.359375 -0.015625 0.975555
-0.375 -0.015625 0.9813
-0.34375 -0.015625 0.968556
-0.328125 -0.015625 0.96018
-0.328125 0 0.960179
-0.34375 0 0.968556
-0.328125 -0.015625 0.96018
-0.3125 -0.015625 0.950318
-0.3125 0 0.950316
-0.328125 0 0.960179
-0.328125 -0.03125 0.960185
-0.3125 -0.03125 0.950326
-0.3125 -0.015625 0.950318
-0.328125 -0.015625 0.96018
-0.34375 -0.03125 0.968558
-0.328125 -0.03125 0.960185
-0.328125 -0.015625 0.96018
-0.34375 -0.015625 0.968556
-0.34375 -0.046875 0.968564
-0.328125 -0.046875 0.960193
-0.328125 -0.03125 0.960185
-0.34375 -0.03125 0.968558
-0.328125 -0.046875 0.960193
-0.3125 -0.046875 0.950338
-0.3125 -0.03125 0.950326
-0.328125 -0.03125 0.960185
-0.328125 -0.0625 0.960206
-0.3125 -0.0625 0.950356
-0.3125 -0.046875 0.950338
-0.328125 -0.046875 0.960193
-0.34375 -0.0625 0.968573
-0.328125 -0.0625 0.960206
-0.328125 -0.046875 0.960193
-0.34375 -0.046875 0.968564
-0.375 -0.046875 0.981305
-0.359375 -0.046875 0.97556
-0.359375 -0.03125 0.975556
-0.375 -0.03125 0.981301
-0.359375 -0.046875 0.97556
-0.34375 -0.046875 0.968564
-0.34375 -0.03125 0.968558
-0.359375 -0.03125 0.975556
-0.359375 -0.0625 0.975567
-0.34375 -0.0625 0.968573
-0.34375 -0.046875 0.968564
-0.359375 -0.046875 0.97556
-0.375 -0.0625 0.98131
-0.359375 -0.0625 0.975567
-0.359375 -0.046875 0.97556
-0.375 -0.046875 0.981305
-0.3125 -0.015625 0.950318
-0.296875 -0.015625 0.938893
-0.296875 0 0.938889
-0.3125 0 0.950316
-0.296875 -0.015625 0.938893
-0.28125 -0.015625 0.925862
-0.28125 0 0.925856
-0.296875 0 0.938889
-0.296875 -0.03125 0.938904
-0.28125 -0.03125 0.925879
-0.28125 -0.015625 0.925862
-0.296875 -0.015625 0.938893
-0.3125 -0.03125 0.950326
-0.296875 -0.03125 0.938904
-0.296875 -0.015625 0.938893
-0.3125 -0.015625 0.950318
-0.28125 -0.015625 0.925862
-0.265625 -0.015625 0.911212
-0.265625 0 0.911203
-0.28125 0 0.925856
-0.265625 -0.015625 0.911212
-0.25 -0.015625 0.894951
-0.25 0 0.894939
-0.265625 0 0.911203
-0.265625 -0.03125 0.911234
-0.25 -0.03125 0.894982
-0.25 -0.015625 0.894951
-0.265625 -0.015625 0.911212
-0.28125 -0.03125 0.925879
-0.265625 -0.03125 0.911234
-0.265625 -0.015625 0.911212
-0.28125 -0.015625 0.925862
-0.28125 -0.046875 0.925901
-0.265625 -0.046875 0.911263
-0.265625 -0.03125 0.911234
-0.28125 -0.03125 0.925879
-0.265625 -0.046875 0.911263
-0.25 -0.046875 0.895018
-0.25 -0.03125 0.894982
-0.265625 -0.03125 0.911234
-0.265625 -0.0625 0.911298
-0.25 -0.0625 0.895059
-0.25 -0.046875 0.895018
-0.265625 -0.046875 0.911263
-0.28125 -0.0625 0.92593
-0.265625 -0.0625 0.911298
-0.265625 -0.046875 0.911263
-0.28125 -0.046875 0.925901
-0.3125 -0.046875 0.950338
-0.296875 -0.046875 0.938921
-0.296875 -0.03125 0.938904
-0.3125 -0.03125 0.950326
-0.296875 -0.046875 0.938921
-0.28125 -0.046875 0.925901
-0.28125 -0.03125 0.925879
-0.296875 -0.03125 0.938904
-0.296875 -0.0625 0.938944
-0.28125 -0.0625 0.92593
-0.28125 -0.046875 0.925901
-0.296875 -0.046875 0.938921
-0.3125 -0.0625 0.950356
-0.296875 -0.0625 0.938944
-0.296875 -0.046875 0.938921
-0.3125 -0.046875 0.950338
-0.3125 -0.078125 0.950378
-0.296875 -0.078125 0.938973
-0.296875 -0.0625 0.938944
-0.3125 -0.0625 0.950356
-0.296875 -0.078125 0.938973
-0.28125 -0.078125 0.925966
-0.28125 -0.0625 0.92593
-0.296875 -0.0625 0.938944
-0.296875 -0.09375 0.939009
-0.28125 -0.09375 0.926009
-0.28125 -0.078125 0.925966
-0.296875 -0.078125 0.938973
-0.3125 -0.09375 0.950407
-0.296875 -0.09375 0.939009
-0.296875 -0.078125 0.938973
-0.3125 -0.078125 0.950378
-0.28125 -0.078125 0.925966
-0.265625 -0.078125 0.911341
-0.265625 -0.0625 0.911298
-0.28125 -0.0625 0.92593
-0.265625 -0.078125 0.911341
-0.25 -0.078125 0.895109
-0.25 -0.0625 0.895059
-0.265625 -0.0625 0.911298
-0.265625 -0.09375 0.911393
-0.25 -0.09375 0.895168
-0.25 -0.078125 0.895109
-0.265625 -0.078125 0.911341
-0.28125 -0.09375 0.926009
-0.265625 -0.09375 0.911393
-0.265625 -0.078125 0.911341
-0.28125 -0.078125 0.925966
-0.28125 -0.109375 0.92606
-0.265625 -0.109375 0.911453
-0.265625 -0.09375 0.911393
-0.28125 -0.09375 0.926009
-0.265625 -0.109375 0.911453
[...]
POINT_DATA 19330
SCALARS "density" float 1
LOOKUP_TABLE default
0.997517
0.99752
0.99752
0.997517
0.99752
0.996652
0.996662
0.99752
0.996652
0.994651
0.99465
0.996662
0.996656
0.994652
0.994651
0.996652
0.99752
0.996656
0.996652
0.99752
0.99752
0.99665
0.996656
0.99752
0.99665
0.994655
0.994652
0.996656
0.99665
0.994657
0.994655
0.99665
0.99752
0.99665
0.99665
0.99752
0.997516
0.99752
0.99752
0.997517
0.994651
0.992396
0.992395
0.99465
0.992396
0.989565
0.989563
0.992395
0.992399
0.989569
0.989565
0.992396
0.994652
0.992399
0.992396
0.994651
0.989565
0.985922
0.985921
0.989563
0.985922
0.9813
0.9813
0.985921
0.985925
0.981301
0.9813
0.985922
0.989569
0.985925
0.985922
0.989565
0.989574
0.985929
0.985925
0.989569
0.985929
0.981305
0.981301
0.985925
0.985933
0.98131
0.981305
0.985929
0.989577
0.985933
0.985929
0.989574
0.994655
0.992404
0.992399
0.994652
0.992404
0.989574
0.989569
0.992399
0.992407
0.989577
0.989574
0.992404
0.994657
0.992407
0.992404
0.994655
0.994658
0.992408
0.992407
0.994657
0.992408
0.989579
0.989577
0.992407
0.992409
0.989581
0.989579
0.992408
0.994659
0.992409
0.992408
0.994658
0.989579
0.985937
0.985933
0.989577
0.985937
0.981317
0.98131
0.985933
0.985942
0.981325
0.981317
0.985937
0.989581
0.985942
0.985937
0.989579
0.989583
0.985947
0.985942
0.989581
0.985947
0.981333
0.981325
0.985942
0.985952
0.981342
0.981333
0.985947
0.989585
0.985952
0.985947
0.989583
0.994659
0.992411
0.992409
0.994659
0.992411
0.989583
0.989581
0.992409
0.992412
0.989585
0.989583
0.992411
0.994659
0.992412
0.992411
0.994659
0.997516
0.99752
0.99752
0.997516
0.99752
0.996642
0.99665
0.99752
0.996642
0.994658
0.994657
0.99665
0.996641
0.994659
0.994658
0.996642
0.99752
0.996641
0.996642
0.99752
0.997519
0.99663
0.996641
0.99752
0.99663
0.994659
0.994659
0.996641
0.996627
0.994659
0.994659
0.99663
0.997519
0.996627
0.99663
0.997519
0.997514
0.997519
0.99752
0.997516
0.9813
0.975555
0.975555
0.9813
0.975555
0.968556
0.968556
0.975555
0.975556
0.968558
0.968556
0.975555
0.981301
0.975556
0.975555
0.9813
0.968556
0.96018
0.960179
0.968556
0.96018
0.950318
0.950316
0.960179
0.960185
0.950326
0.950318
0.96018
0.968558
0.960185
0.96018
0.968556
0.968564
0.960193
0.960185
0.968558
0.960193
0.950338
0.950326
0.960185
0.960206
0.950356
0.950338
0.960193
0.968573
0.960206
0.960193
0.968564
0.981305
0.97556
0.975556
0.981301
0.97556
0.968564
0.968558
0.975556
0.975567
0.968573
0.968564
0.97556
0.98131
0.975567
0.97556
0.981305
0.950318
0.938893
0.938889
0.950316
0.938893
0.925862
0.925856
0.938889
0.938904
0.925879
0.925862
0.938893
0.950326
0.938904
0.938893
0.950318
0.925862
0.911212
0.911203
0.925856
0.911212
0.894951
0.894939
0.911203
0.911234
0.894982
0.894951
0.911212
0.925879
0.911234
0.911212
0.925862
0.925901
0.911263
0.911234
0.925879
0.911263
0.895018
0.894982
0.911234
0.911298
0.895059
0.895018
0.911263
0.92593
0.911298
0.911263
0.925901
0.950338
0.938921
0.938904
0.950326
0.938921
0.925901
0.925879
0.938904
0.938944
0.92593
0.925901
0.938921
0.950356
0.938944
0.938921
0.950338
0.950378
0.938973
0.938944
0.950356
0.938973
0.925966
0.92593
0.938944
0.939009
0.926009
0.925966
0.938973
0.950407
0.939009
0.938973
0.950378
0.925966
0.911341
0.911298
0.92593
0.911341
0.895109
0.895059
0.911298
0.911393
0.895168
0.895109
0.911341
0.926009
0.911393
0.911341
0.925966
0.92606
0.911453
0.911393
0.926009
0.911453
0.895236
0.895168
0.911393
0.91152
0.895312
0.895236
0.911453
0.926118
0.91152
0.911453
0.92606
0.950439
0.93905
0.939009
0.950407
0.93905
0.92606
0.926009
0.939009
0.939097
0.926118
0.92606
0.93905
0.950476
0.939097
0.93905
0.950439
0.981317
0.975576
0.975567
0.98131
0.975576
0.968586
0.968573
0.975567
0.975588
0.968602
0.968586
0.975576
0.981325
0.975588
0.975576
0.981317
0.968586
0.960224
0.960206
0.968573
0.960224
0.950378
0.950356
0.960206
0.960245
0.950407
0.950378
0.960224
0.968602
0.960245
0.960224
0.968586
0.96862
0.96027
0.960245
0.968602
0.96027
0.950439
0.950407
0.960245
0.960298
0.950476
0.950439
0.96027
0.96864
0.960298
0.96027
0.96862
0.981333
0.9756
0.975588
0.981325
0.9756
0.96862
0.968602
0.975588
0.975614
0.96864
0.96862
0.9756
0.981342
0.975614
0.9756
0.981333
0.981351
0.975629
0.975614
0.981342
0.975629
0.968662
0.96864
0.975614
0.975644
0.968684
0.968662
0.975629
0.98136
0.975644
0.975629
0.981351
0.968662
0.960328
0.960298
0.96864
0.960328
0.950516
0.950476
0.960298
0.960358
0.950556
0.950516
0.960328
0.968684
0.960358
0.960328
0.968662
0.968705
0.960387
0.960358
0.968684
0.960387
0.950595
0.950556
0.960358
0.960414
0.950631
0.950595
0.960387
0.968724
0.960414
0.960387
0.968705
0.981368
0.975658
0.975644
0.98136
0.975658
0.968705
0.968684
0.975644
0.975671
0.968724
0.968705
0.975658
0.981376
0.975671
0.975658
0.981368
0.950516
0.939147
0.939097
0.950476
0.939147
0.926179
0.926118
0.939097
0.939199
0.926242
0.926179
0.939147
0.950556
0.939199
0.939147
0.950516
0.926179
0.911593
0.91152
0.926118
0.911593
0.895394
0.895312
0.91152
0.911667
0.895479
0.895394
0.911593
0.926242
0.911667
0.911593
0.926179
0.926304
0.91174
0.911667
0.926242
0.91174
0.895562
0.895479
0.911667
0.911808
0.89564
0.895562
0.91174
0.926361
0.911808
0.91174
0.926304
0.950595
0.939249
0.939199
0.950556
0.939249
0.926304
0.926242
0.939199
0.939295
0.926361
0.926304
0.939249
0.950631
0.939295
0.939249
0.950595
0.950661
0.939334
0.939295
0.950631
0.939334
0.92641
0.926361
0.939295
0.939364
0.926447
0.92641
0.939334
0.950684
0.939364
0.939334
0.950661
0.92641
0.911866
0.911808
0.926361
0.911866
0.895706
0.89564
0.911808
0.91191
0.895757
0.895706
0.911866
0.926447
0.91191
0.911866
0.92641
0.926471
0.911938
0.91191
0.926447
0.911938
0.895789
0.895757
0.91191
0.911948
0.8958
0.895789
0.911938
0.926479
0.911948
0.911938
0.926471
0.950698
0.939383
0.939364
0.950684
0.939383
0.926471
0.926447
0.939364
0.93939
0.926479
0.926471
0.939383
0.950703
0.93939
0.939383
0.950698
0.981383
0.975682
0.975671
0.981376
0.975682
0.96874
0.968724
0.975671
0.97569
0.968752
0.96874
0.975682
0.98139
0.97569
0.975682
0.981383
0.96874
0.960436
0.960414
0.968724
0.960436
0.950661
0.950631
0.960414
0.960453
0.950684
0.950661
0.960436
0.968752
0.960453
0.960436
0.96874
0.96876
0.960463
0.960453
0.968752
0.960463
0.950698
0.950684
0.960453
0.960467
0.950703
0.950698
0.960463
0.968762
0.960467
0.960463
0.96876
0.981394
0.975696
0.97569
0.98139
0.975696
0.96876
0.968752
0.97569
0.975698
0.968762
0.96876
0.975696
0.981395
0.975698
0.975696
0.981394
0.997513
0.997517
0.997519
0.997514
0.997518
0.996612
0.996627
0.997519
0.996612
0.994657
0.994659
0.996627
0.996606
0.994655
0.994657
0.996612
0.997517
0.996606
0.996612
0.997518
0.997516
0.996588
0.996606
0.997517
0.996588
0.994655
0.994655
0.996606
0.996578
0.994657
0.994655
0.996588
0.997515
0.996578
0.996588
0.997516
0.997511
0.997515
0.997517
0.997513
0.994657
0.992411
0.992412
0.994659
0.992411
0.989586
0.989585
0.992412
0.992409
0.989585
0.989586
0.992411
0.994655
0.992409
0.992411
0.994657
0.989586
0.985956
0.985952
0.989585
0.985956
0.981351
0.981342
0.985952
0.98596
0.98136
0.981351
0.985956
0.989585
0.98596
0.985956
0.989586
0.989585
0.985963
0.98596
0.989585
0.985963
0.981368
0.98136
0.98596
0.985967
0.981376
0.981368
0.985963
0.989587
0.985967
0.985963
0.989585
0.994655
0.992409
0.992409
0.994655
0.992409
0.989585
0.989585
0.992409
0.992412
0.989587
0.989585
0.992409
0.994657
0.992412
0.992409
0.994655
0.994656
0.992416
0.992412
0.994657
0.992416
0.989591
0.989587
0.992412
0.992419
0.989597
0.989591
0.992416
0.994648
0.992419
0.992416
0.994656
0.989591
0.985972
0.985967
0.989587
0.985972
0.981383
0.981376
0.985967
0.985978
0.98139
0.981383
0.985972
0.989597
0.985978
0.985972
0.989591
0.989603
0.985982
0.985978
0.989597
0.985982
0.981394
0.98139
0.985978
0.985984
0.981395
0.981394
0.985982
0.989605
0.985984
0.985982
0.989603
0.994637
0.99242
0.992419
0.994648
0.99242
0.989603
0.989597
0.992419
0.99242
0.989605
0.989603
0.99242
0.994632
0.99242
0.99242
0.994637
0.997511
0.997512
0.997515
0.997511
0.997513
0.996559
0.996578
0.997515
0.996559
0.994656
0.994657
0.996578
0.996549
0.994648
0.994656
0.996559
0.997512
0.996549
0.996559
0.997513
0.997511
0.996534
0.996549
0.997512
0.996534
0.994637
0.994648
0.996549
0.996534
0.994632
0.994637
0.996534
0.99751
0.996534
0.996534
0.997511
0.99751
0.99751
0.997512
0.997511
0.894951
0.877119
0.877103
0.894939
0.877119
0.857775
0.857755
0.877103
0.877158
0.857823
0.857775
0.877119
0.894982
0.877158
0.877119
0.894951
0.857775
0.83699
0.836965
0.857755
0.83699
0.814835
0.814807
0.836965
0.837046
0.814898
0.814835
0.83699
0.857823
0.837046
0.83699
0.857775
0.857873
0.837103
0.837046
0.857823
0.837103
0.81496
0.814898
0.837046
0.837159
0.815018
0.81496
0.837103
0.857926
0.837159
0.837103
0.857873
0.895018
0.877201
0.877158
0.894982
0.877201
0.857873
0.857823
0.877158
0.877249
0.857926
0.857873
0.877201
0.895059
0.877249
0.877201
0.895018
0.814835
0.791373
0.791343
0.814807
0.791373
0.766684
0.766658
0.791343
0.791438
0.766739
0.766684
0.791373
0.814898
0.791438
0.791373
0.814835
0.766684
0.740946
0.740931
0.766658
0.740946
0.714436
0.714442
0.740931
0.740974
0.714418
0.714436
0.740946
0.766739
0.740974
0.740946
0.766684
0.766791
0.740994
0.740974
0.766739
0.740994
0.714386
0.714418
0.740974
0.740993
0.714318
0.714386
0.740994
0.766828
0.740993
0.740994
0.766791
0.81496
0.7915
0.791438
0.814898
0.7915
0.766791
0.766739
0.791438
0.791554
0.766828
0.766791
0.7915
0.815018
0.791554
0.7915
0.81496
0.815073
0.7916
0.791554
0.815018
0.7916
0.766853
0.766828
0.791554
0.79164
0.766866
0.766853
0.7916
0.815129
0.79164
0.7916
0.815073
0.766853
0.740974
0.740993
0.766828
0.740974
0.714214
0.714318
0.740993
0.740947
0.714112
0.714214
0.740974
0.766866
0.740947
0.740974
0.766853
0.766874
0.740925
0.740947
0.766866
0.740925
0.714045
0.714112
0.740947
0.740911
0.714006
0.714045
0.740925
0.766885
0.740911
0.740925
0.766874
0.815188
0.791677
0.79164
0.815129
0.791677
0.766874
0.766866
0.79164
0.791717
0.766885
0.766874
0.791677
0.815254
0.791717
0.791677
0.815188
0.895109
0.877304
0.877249
0.895059
0.877304
0.857984
0.857926
0.877249
0.877368
0.85805
0.857984
0.877304
0.895168
0.877368
0.877304
0.895109
0.857984
0.837218
0.837159
0.857926
0.837218
0.815073
0.815018
0.837159
0.837282
0.815129
0.815073
0.837218
0.85805
0.837282
0.837218
0.857984
0.858126
0.837354
0.837282
0.85805
0.837354
0.815188
0.815129
0.837282
0.837434
0.815254
0.815188
0.837354
0.858211
0.837434
0.837354
0.858126
0.895236
0.877442
0.877368
0.895168
0.877442
0.858126
0.85805
0.877368
0.877524
0.858211
0.858126
0.877442
0.895312
0.877524
0.877442
0.895236
0.714436
0.687035
0.687071
0.714442
0.687035
0.65688
0.656952
0.687071
0.686952
0.656713
0.65688
0.687035
0.714418
0.686952
0.687035
0.714436
0.65688
0.619377
0.619518
0.656952
0.619377
0.570375
0.570639
0.619518
0.619052
0.569691
0.570375
0.619377
0.656713
0.619052
0.619377
0.65688
0.656539
0.618713
0.619052
0.656713
0.618713
0.568834
0.569691
0.619052
0.618546
0.567836
0.568834
0.618713
0.656348
0.618546
0.618713
0.656539
0.714386
0.686854
0.686952
0.714418
0.686854
0.656539
0.656713
0.686952
0.686701
0.656348
0.656539
0.686854
0.714318
0.686701
0.686854
0.714386
0.570375
0.514685
0.514963
0.570639
0.514893
0.469791
0.470168
0.514963
0.469791
0.45661
0.456862
0.470168
0.469519
0.456369
0.45661
0.469791
0.514824
0.469519
0.469791
0.514893
0.45661
0.454436
0.45471
0.456862
0.454436
0.454088
0.454247
0.45471
0.454197
0.453817
0.454088
0.454436
0.456369
0.454197
0.454436
0.45661
0.456166
0.454002
0.454197
0.456369
0.454002
0.453586
0.453817
0.454197
0.453846
0.453383
0.453586
0.454002
0.456003
0.453846
0.454002
0.456166
0.514755
0.469213
0.469519
0.514824
0.469213
0.456166
0.456369
0.469519
0.468943
0.456003
0.456166
0.469213
0.514685
0.468943
0.469213
0.514755
0.514505
0.468461
0.468943
0.514685
0.468461
0.455855
0.456003
0.468943
0.468039
0.455742
0.455855
0.468461
0.514324
0.468039
0.468461
0.514505
0.455855
0.453718
0.453846
0.456003
0.453718
0.453208
0.453383
0.453846
0.453623
0.453071
0.453208
0.453718
0.455742
0.453623
0.453718
0.455855
0.45568
0.453579
0.453623
0.455742
0.453579
0.452975
0.453071
0.453623
0.453586
0.452921
0.452975
0.453579
0.455635
0.453586
0.453579
0.45568
0.514143
0.467642
0.468039
0.514324
0.467642
0.45568
0.455742
0.468039
0.46734
0.455635
0.45568
0.467642
0.513963
0.46734
0.467642
0.514143
0.569691
0.513963
0.514685
0.570375
0.454088
0.452197
0.45232
0.454247
0.452197
0.44895
0.449024
0.45232
0.451977
0.448837
0.44895
0.452197
0.453817
0.451977
0.452197
0.454088
0.44895
0.446075
0.44608
0.449024
0.446075
0.445937
0.445832
0.44608
0.446086
0.446042
0.445937
0.446075
0.448837
0.446086
0.446075
0.44895
0.448785
0.446143
0.446086
0.448837
0.446143
0.446147
0.446042
0.446086
0.446241
0.446252
0.446147
0.446143
0.448749
0.446241
0.446143
0.448785
0.453586
0.451806
0.451977
0.453817
0.451806
0.448785
0.448837
0.451977
0.451661
0.448749
0.448785
0.451806
0.453383
0.451661
0.451806
0.453586
0.446252
0.445588
0.445094
0.445832
0.447403
0.44674
0.445588
0.446252
0.453208
0.45154
0.451661
0.453383
0.45154
0.448728
0.448749
0.451661
0.451481
0.448786
0.448728
0.45154
0.453071
0.451481
0.45154
0.453208
0.448728
0.446412
0.446241
0.448749
0.446412
0.44654
0.446252
0.446241
0.446489
0.446827
0.44654
0.446412
0.448786
0.446489
0.446412
0.448728
0.448947
0.446725
0.446489
0.448786
0.446725
0.447115
0.446827
0.446489
0.4472
0.447403
0.447115
0.446725
0.449196
0.4472
0.446725
0.448947
0.452975
0.451482
0.451481
0.453071
0.451482
0.448947
0.448786
0.451481
0.451528
0.449196
0.448947
0.451482
0.452921
0.451528
0.451482
0.452975
0.45292
0.451628
0.451528
0.452921
0.451628
0.449452
0.449196
0.451528
0.451819
0.4498
0.449452
0.451628
0.452968
0.451819
0.451628
0.45292
0.449452
0.447576
0.4472
0.449196
0.447576
0.447917
0.447403
0.4472
0.448002
0.44843
0.447917
0.447576
0.4498
0.448002
0.447576
0.449452
0.450306
0.448619
0.448002
0.4498
0.448619
0.448943
0.44843
0.448002
0.449397
0.449456
0.448943
0.448619
0.450924
0.449397
0.448619
0.450306
0.453076
0.452108
0.451819
0.452968
0.452108
0.450306
0.4498
0.451819
0.452468
0.450924
0.450306
0.452108
0.453243
0.452468
0.452108
0.453076
0.449456
0.448242
0.44674
0.447403
0.451495
0.449634
0.448242
0.449456
0.453465
0.452877
0.452468
0.453243
0.452877
0.451576
0.450924
0.452468
0.453319
0.452232
0.451576
0.452877
0.45374
0.453319
0.452877
0.453465
0.451576
0.450167
0.449397
0.450924
0.450167
0.449966
0.449456
0.449397
0.450987
0.450476
0.449966
0.450167
0.452232
0.450987
0.450167
0.451576
0.452782
0.451511
0.450987
0.452232
0.451511
0.450985
0.450476
0.450987
0.451992
0.451495
0.450985
0.451511
0.453253
0.451992
0.451511
0.452782
0.454056
0.453755
0.453319
0.45374
0.453755
0.452782
0.452232
0.453319
0.454156
0.453253
0.452782
0.453755
0.454374
0.454156
0.453755
0.454056
0.568834
0.513271
0.513963
0.569691
0.51379
0.466899
0.46734
0.513963
0.466899
0.455598
0.455635
0.46734
0.466594
0.45557
0.455598
0.466899
0.513617
0.466594
0.466899
0.51379
0.455598
0.453577
0.453586
0.455635
0.453577
0.45292
0.452921
0.453586
0.453555
0.452968
0.45292
0.453577
0.45557
0.453555
0.453577
0.455598
0.455539
0.453593
0.453555
0.45557
0.453593
0.453076
0.452968
0.453555
0.453681
0.453243
0.453076
0.453593
0.455538
0.453681
0.453593
0.455539
0.513444
0.46638
0.466594
0.513617
0.46638
0.455539
0.45557
0.466594
0.466275
0.455538
0.455539
0.46638
0.513271
0.466275
0.46638
0.513444
0.513206
0.466011
0.466275
0.513271
0.466011
0.455565
0.455538
0.466275
0.465845
0.455655
0.455565
0.466011
0.513142
0.465845
0.466011
0.513206
0.455565
0.453814
0.453681
0.455538
0.453814
0.453465
0.453243
0.453681
0.454018
0.45374
0.453465
0.453814
0.455655
0.454018
0.453814
0.455565
0.45581
0.454283
0.454018
0.455655
0.454283
0.454056
0.45374
0.454018
0.454574
0.454374
0.454056
0.454283
0.456012
0.454574
0.454283
0.45581
0.513078
0.465762
0.465845
0.513142
0.465762
0.45581
0.455655
0.465845
0.465818
0.456012
0.45581
0.465762
0.513014
0.465818
0.465762
0.513078
0.567836
0.513014
0.513271
0.568834
0.566488
0.5132
0.513014
0.567836
0.513061
0.465791
0.465818
0.513014
0.465791
0.45624
0.456012
0.465818
0.465898
0.4565
0.45624
0.465791
0.513107
0.465898
0.465791
0.513061
0.45624
0.454867
0.454574
0.456012
0.454867
0.454703
0.454374
0.454574
0.455169
0.455033
0.454703
0.454867
0.4565
0.455169
0.454867
0.45624
0.456801
0.455479
0.455169
0.4565
0.455479
0.455351
0.455033
0.455169
0.455793
0.455683
0.455351
0.455479
0.457135
0.455793
0.455479
0.456801
0.513154
0.466153
0.465898
0.513107
0.466153
0.456801
0.4565
0.465898
0.466581
0.457135
0.456801
0.466153
0.5132
0.466581
0.466153
0.513154
0.513383
0.466916
0.466581
0.5132
0.466916
0.457487
0.457135
0.466581
0.467416
0.457869
0.457487
0.466916
0.513567
0.467416
0.466916
0.513383
0.457487
0.456119
0.455793
0.457135
0.456119
0.45604
0.455683
0.455793
0.456477
0.456413
0.45604
0.456119
0.457869
0.456477
0.456119
0.457487
0.458286
0.45686
0.456477
0.457869
0.45686
0.456792
0.456413
0.456477
0.457245
0.457178
0.456792
0.45686
0.458722
0.457245
0.45686
0.458286
0.51375
0.46803
0.467416
0.513567
0.46803
0.458286
0.457869
0.467416
0.468779
0.458722
0.458286
0.46803
0.513933
0.468779
0.46803
0.51375
0.568026
0.513933
0.5132
0.566488
0.454703
0.454527
0.454156
0.454374
0.454527
0.45363
0.453253
0.454156
0.454842
0.453885
0.45363
0.454527
0.455033
0.454842
0.454527
0.454703
0.45363
0.452353
0.451992
0.453253
0.452353
0.451742
0.451495
0.451992
0.452552
0.451988
0.451742
0.452353
0.453885
0.452552
0.452353
0.45363
0.454036
0.452628
0.452552
0.453885
0.452628
0.452235
0.451988
0.452552
0.452638
0.452482
0.452235
0.452628
0.454134
0.452638
0.452628
0.454036
0.455351
0.455106
0.454842
0.455033
0.455106
0.454036
0.453885
0.454842
0.455357
0.454134
0.454036
0.455106
0.455683
0.455357
0.455106
0.455351
0.452482
0.450751
0.449634
0.451495
0.452899
0.451739
0.450751
0.452482
0.45604
0.455608
0.455357
0.455683
0.455608
0.454223
0.454134
0.455357
0.45586
0.454319
0.454223
0.455608
0.456413
0.45586
0.455608
0.45604
0.454223
0.452656
0.452638
0.454134
0.452656
0.452586
0.452482
0.452638
0.452682
0.45269
0.452586
0.452656
0.454319
0.452682
0.452656
0.454223
0.45441
0.452702
0.452682
0.454319
0.452702
0.452795
0.45269
0.452682
0.452713
0.452899
0.452795
0.452702
0.45444
0.452713
0.452702
0.45441
0.456792
0.456116
0.45586
0.456413
0.456116
0.45441
0.454319
0.45586
0.456365
0.45444
0.45441
0.456116
0.457178
0.456365
0.456116
0.456792
0.457589
0.45662
0.456365
0.457178
0.45662
0.454424
0.45444
0.456365
0.456929
0.454515
0.454424
0.45662
0.458028
0.456929
0.45662
0.457589
0.454424
0.452889
0.452713
0.45444
0.452889
0.453075
0.452899
0.452713
0.452866
0.453252
0.453075
0.452889
0.454515
0.452866
0.452889
0.454424
0.454732
0.452839
0.452866
0.454515
0.452839
0.453428
0.453252
0.452866
0.452865
0.453605
0.453428
0.452839
0.455008
0.452865
0.452839
0.454732
0.458521
0.457311
0.456929
0.458028
0.457311
0.454732
0.454515
0.456929
0.457734
0.455008
0.454732
0.457311
0.459055
0.457734
0.457311
0.458521
0.453605
0.452804
0.451739
0.452899
0.454477
0.453889
0.452804
0.453605
0.459652
0.458166
0.457734
0.459055
0.458166
0.455258
0.455008
0.457734
0.458639
0.455528
0.455258
0.458166
0.460286
0.458639
0.458166
0.459652
0.455258
0.453385
0.452865
0.455008
0.453385
0.453823
0.453605
0.452865
0.453616
0.454041
0.453823
0.453385
0.455528
0.453616
0.453385
0.455258
0.456039
0.453605
0.453616
0.455528
0.453605
0.454259
0.454041
0.453616
0.45413
0.454477
0.454259
0.453605
0.456607
0.45413
0.453605
0.456039
0.460932
0.459185
0.458639
0.460286
0.459185
0.456039
0.455528
0.458639
0.459736
0.456607
0.456039
0.459185
0.461551
0.459736
0.459185
0.460932
0.568423
0.514738
0.513933
0.568026
0.514134
0.469417
0.468779
0.513933
0.469417
0.459165
0.458722
0.468779
0.470189
0.45963
0.459165
0.469417
0.514335
0.470189
0.469417
0.514134
0.459165
0.457631
0.457245
0.458722
0.457631
0.457589
0.457178
0.457245
0.45803
0.458028
0.457589
0.457631
0.45963
0.45803
0.457631
0.459165
0.460126
0.458474
0.45803
0.45963
0.458474
0.458521
0.458028
0.45803
0.458954
0.459055
0.458521
0.458474
0.460649
0.458954