# vtk DataFile Version 2.0

ASCII

DATASET UNSTRUCTURED_GRID
POINTS 18536 float
-0.5 -0.0625 0.959355
-0.4375 -0.0625 0.960117
-0.4375 0 0.960118
-0.5 0 0.959355
-0.4375 -0.0625 0.960117
-0.375 -0.0625 0.960231
-0.375 0 0.960231
-0.4375 0 0.960118
-0.4375 -0.125 0.960117
-0.375 -0.125 0.960227
-0.375 -0.0625 0.960231
-0.4375 -0.0625 0.960117
-0.5 -0.125 0.959354
-0.4375 -0.125 0.960117
-0.4375 -0.0625 0.960117
-0.5 -0.0625 0.959355
-0.375 -0.015625 0.960231
-0.359375 -0.015625 0.960148
-0.359375 0 0.96015
-0.375 0 0.960231
-0.359375 -0.015625 0.960148
-0.34375 -0.015625 0.958675
-0.34375 0 0.958563
-0.359375 0 0.96015
-0.359375 -0.03125 0.960018
-0.34375 -0.03125 0.959044
-0.34375 -0.015625 0.958675
-0.359375 -0.015625 0.960148
-0.375 -0.03125 0.960231
-0.359375 -0.03125 0.960018
-0.359375 -0.015625 0.960148
-0.375 -0.015625 0.960231
-0.34375 -0.015625 0.958675
-0.328125 -0.015625 0.950229
-0.328125 0 0.950225
-0.34375 0 0.958563
-0.328125 -0.015625 0.950229
-0.3125 -0.015625 0.945112
-0.3125 0 0.945107
-0.328125 0 0.950225
-0.328125 -0.03125 0.950228
-0.3125 -0.03125 0.945117
-0.3125 -0.015625 0.945112
-0.328125 -0.015625 0.950229
-0.34375 -0.03125 0.959044
-0.328125 -0.03125 0.950228
-0.328125 -0.015625 0.950229
-0.34375 -0.015625 0.958675
-0.34375 -0.046875 0.958976
-0.328125 -0.046875 0.950193
-0.328125 -0.03125 0.950228
-0.34375 -0.03125 0.959044
-0.328125 -0.046875 0.950193
-0.3125 -0.046875 0.945083
-0.3125 -0.03125 0.945117
-0.328125 -0.03125 0.950228
-0.328125 -0.0625 0.950197
-0.3125 -0.0625 0.945073
-0.3125 -0.046875 0.945083
-0.328125 -0.046875 0.950193
-0.34375 -0.0625 0.958897
-0.328125 -0.0625 0.950197
-0.328125 -0.046875 0.950193
-0.34375 -0.046875 0.958976
-0.375 -0.046875 0.960231
-0.359375 -0.046875 0.959979
-0.359375 -0.03125 0.960018
-0.375 -0.03125 0.960231
-0.359375 -0.046875 0.959979
-0.34375 -0.046875 0.958976
-0.34375 -0.03125 0.959044
-0.359375 -0.03125 0.960018
-0.359375 -0.0625 0.959956
-0.34375 -0.0625 0.958897
-0.34375 -0.046875 0.958976
-0.359375 -0.046875 0.959979
-0.375 -0.0625 0.960231
-0.359375 -0.0625 0.959956
-0.359375 -0.046875 0.959979
-0.375 -0.046875 0.960231
-0.3125 -0.015625 0.945112
-0.296875 -0.015625 0.941118
-0.296875 0 0.941076
-0.3125 0 0.945107
-0.296875 -0.015625 0.941118
-0.28125 -0.015625 0.937091
-0.28125 0 0.937014
-0.296875 0 0.941076
-0.296875 -0.03125 0.94116
-0.28125 -0.03125 0.937169
-0.28125 -0.015625 0.937091
-0.296875 -0.015625 0.941118
-0.3125 -0.03125 0.945117
-0.296875 -0.03125 0.94116
-0.296875 -0.015625 0.941118
-0.3125 -0.015625 0.945112
-0.28125 -0.015625 0.937091
-0.265625 -0.015625 0.931534
-0.265625 0 0.931534
-0.28125 0 0.937014
-0.265625 -0.015625 0.931534
-0.25 -0.015625 0.927691
-0.25 0 0.927688
-0.265625 0 0.931534
-0.265625 -0.03125 0.93154
-0.25 -0.03125 0.927689
-0.25 -0.015625 0.927691
-0.265625 -0.015625 0.931534
-0.28125 -0.03125 0.937169
-0.265625 -0.03125 0.93154
-0.265625 -0.015625 0.931534
-0.28125 -0.015625 0.937091
-0.28125 -0.046875 0.937053
-0.265625 -0.046875 0.931547
-0.265625 -0.03125 0.93154
-0.28125 -0.03125 0.937169
-0.265625 -0.046875 0.931547
-0.25 -0.046875 0.927673
-0.25 -0.03125 0.927689
-0.265625 -0.03125 0.93154
-0.265625 -0.0625 0.931519
-0.25 -0.0625 0.927655
-0.25 -0.046875 0.927673
-0.265625 -0.046875 0.931547
-0.28125 -0.0625 0.937047
-0.265625 -0.0625 0.931519
-0.265625 -0.046875 0.931547
-0.28125 -0.046875 0.937053
-0.3125 -0.046875 0.945083
-0.296875 -0.046875 0.941178
-0.296875 -0.03125 0.94116
-0.3125 -0.03125 0.945117
-0.296875 -0.046875 0.941178
-0.28125 -0.046875 0.937053
-0.28125 -0.03125 0.937169
-0.296875 -0.03125 0.94116
-0.296875 -0.0625 0.941113
-0.28125 -0.0625 0.937047
-0.28125 -0.046875 0.937053
-0.296875 -0.046875 0.941178
-0.3125 -0.0625 0.945073
-0.296875 -0.0625 0.941113
-0.296875 -0.046875 0.941178
-0.3125 -0.046875 0.945083
-0.3125 -0.078125 0.945067
-0.296875 -0.078125 0.941095
-0.296875 -0.0625 0.941113
-0.3125 -0.0625 0.945073
-0.296875 -0.078125 0.941095
-0.28125 -0.078125 0.937009
-0.28125 -0.0625 0.937047
-0.296875 -0.0625 0.941113
-0.296875 -0.09375 0.941072
-0.28125 -0.09375 0.936971
-0.28125 -0.078125 0.937009
-0.296875 -0.078125 0.941095
-0.3125 -0.09375 0.945055
-0.296875 -0.09375 0.941072
-0.296875 -0.078125 0.941095
-0.3125 -0.078125 0.945067
-0.28125 -0.078125 0.937009
-0.265625 -0.078125 0.931513
-0.265625 -0.0625 0.931519
-0.28125 -0.0625 0.937047
-0.265625 -0.078125 0.931513
-0.25 -0.078125 0.927639
-0.25 -0.0625 0.927655
-0.265625 -0.0625 0.931519
-0.265625 -0.09375 0.931512
-0.25 -0.09375 0.927658
-0.25 -0.078125 0.927639
-0.265625 -0.078125 0.931513
-0.28125 -0.09375 0.936971
-0.265625 -0.09375 0.931512
-0.265625 -0.078125 0.931513
-0.28125 -0.078125 0.937009
-0.28125 -0.109375 0.937017
-0.265625 -0.109375 0.931518
-0.265625 -0.09375 0.931512
-0.28125 -0.09375 0.936971
-0.265625 -0.109375 0.931518
-0.25 -0.109375 0.927682
-0.25 -0.09375 0.927658
-0.265625 -0.09375 0.931512
-0.265625 -0.125 0.931516
-0.25 -0.125 0.927711
-0.25 -0.109375 0.927682
-0.265625 -0.109375 0.931518
-0.28125 -0.125 0.937062
-0.265625 -0.125 0.931516
-0.265625 -0.109375 0.931518
-0.28125 -0.109375 0.937017
-0.3125 -0.109375 0.945075
-0.296875 -0.109375 0.941109
-0.296875 -0.09375 0.941072
-0.3125 -0.09375 0.945055
-0.296875 -0.109375 0.941109
-0.28125 -0.109375 0.937017
-0.28125 -0.09375 0.936971
-0.296875 -0.09375 0.941072
-0.296875 -0.125 0.941147
-0.28125 -0.125 0.937062
-0.28125 -0.109375 0.937017
-0.296875 -0.109375 0.941109
-0.3125 -0.125 0.945103
-0.296875 -0.125 0.941147
-0.296875 -0.109375 0.941109
-0.3125 -0.109375 0.945075
-0.375 -0.078125 0.96023
-0.359375 -0.078125 0.960133
-0.359375 -0.0625 0.959956
-0.375 -0.0625 0.960231
-0.359375 -0.078125 0.960133
-0.34375 -0.078125 0.95851
-0.34375 -0.0625 0.958897
-0.359375 -0.0625 0.959956
-0.359375 -0.09375 0.959988
-0.34375 -0.09375 0.958865
-0.34375 -0.078125 0.95851
-0.359375 -0.078125 0.960133
-0.375 -0.09375 0.960229
-0.359375 -0.09375 0.959988
-0.359375 -0.078125 0.960133
-0.375 -0.078125 0.96023
-0.34375 -0.078125 0.95851
-0.328125 -0.078125 0.950195
-0.328125 -0.0625 0.950197
-0.34375 -0.0625 0.958897
-0.328125 -0.078125 0.950195
-0.3125 -0.078125 0.945067
-0.3125 -0.0625 0.945073
-0.328125 -0.0625 0.950197
-0.328125 -0.09375 0.950188
-0.3125 -0.09375 0.945055
-0.3125 -0.078125 0.945067
-0.328125 -0.078125 0.950195
-0.34375 -0.09375 0.958865
-0.328125 -0.09375 0.950188
-0.328125 -0.078125 0.950195
-0.34375 -0.078125 0.95851
-0.34375 -0.109375 0.95887
-0.328125 -0.109375 0.950179
-0.328125 -0.09375 0.950188
-0.34375 -0.09375 0.958865
-0.328125 -0.109375 0.950179
-0.3125 -0.109375 0.945075
-0.3125 -0.09375 0.945055
-0.328125 -0.09375 0.950188
-0.328125 -0.125 0.9502
-0.3125 -0.125 0.945103
-0.3125 -0.109375 0.945075
-0.328125 -0.109375 0.950179
-0.34375 -0.125 0.95887
-0.328125 -0.125 0.9502
-0.328125 -0.109375 0.950179
-0.34375 -0.109375 0.95887
-0.375 -0.109375 0.960228
-0.359375 -0.109375 0.959982
-0.359375 -0.09375 0.959988
-0.375 -0.09375 0.960229
-0.359375 -0.109375 0.959982
-0.34375 -0.109375 0.95887
-0.34375 -0.09375 0.958865
-0.359375 -0.09375 0.959988
-0.359375 -0.125 0.960012
-0.34375 -0.125 0.95887
-0.34375 -0.109375 0.95887
-0.359375 -0.109375 0.959982
-0.375 -0.125 0.960227
-0.359375 -0.125 0.960012
-0.359375 -0.109375 0.959982
-0.375 -0.109375 0.960228
-0.375 -0.140625 0.96023
-0.359375 -0.140625 0.960127
-0.359375 -0.125 0.960012
-0.375 -0.125 0.960227
-0.359375 -0.140625 0.960127
-0.34375 -0.140625 0.958571
-0.34375 -0.125 0.95887
-0.359375 -0.125 0.960012
-0.359375 -0.15625 0.959664
-0.34375 -0.15625 0.958996
-0.34375 -0.140625 0.958571
-0.359375 -0.140625 0.960127
-0.375 -0.15625 0.960233
-0.359375 -0.15625 0.959664
-0.359375 -0.140625 0.960127
-0.375 -0.140625 0.96023
-0.34375 -0.140625 0.958571
-0.328125 -0.140625 0.950202
-0.328125 -0.125 0.9502
-0.34375 -0.125 0.95887
-0.328125 -0.140625 0.950202
-0.3125 -0.140625 0.945092
-0.3125 -0.125 0.945103
-0.328125 -0.125 0.9502
-0.328125 -0.15625 0.950182
-0.3125 -0.15625 0.945083
-0.3125 -0.140625 0.945092
-0.328125 -0.140625 0.950202
-0.34375 -0.15625 0.958996
-0.328125 -0.15625 0.950182
-0.328125 -0.140625 0.950202
-0.34375 -0.140625 0.958571
-0.34375 -0.171875 0.959026
-0.328125 -0.171875 0.95016
-0.328125 -0.15625 0.950182
-0.34375 -0.15625 0.958996
-0.328125 -0.171875 0.95016
-0.3125 -0.171875 0.945074
-0.3125 -0.15625 0.945083
-0.328125 -0.15625 0.950182
-0.328125 -0.1875 0.95019
-0.3125 -0.1875 0.945062
-0.3125 -0.171875 0.945074
-0.328125 -0.171875 0.95016
-0.34375 -0.1875 0.959047
-0.328125 -0.1875 0.95019
-0.328125 -0.171875 0.95016
-0.34375 -0.171875 0.959026
-0.375 -0.171875 0.960235
-0.359375 -0.171875 0.959666
-0.359375 -0.15625 0.959664
-0.375 -0.15625 0.960233
-0.359375 -0.171875 0.959666
-0.34375 -0.171875 0.959026
-0.34375 -0.15625 0.958996
-0.359375 -0.15625 0.959664
-0.359375 -0.1875 0.959677
-0.34375 -0.1875 0.959047
-0.34375 -0.171875 0.959026
-0.359375 -0.171875 0.959666
-0.375 -0.1875 0.960238
-0.359375 -0.1875 0.959677
-0.359375 -0.171875 0.959666
-0.375 -0.171875 0.960235
-0.3125 -0.140625 0.945092
-0.296875 -0.140625 0.941135
-0.296875 -0.125 0.941147
-0.3125 -0.125 0.945103
-0.296875 -0.140625 0.941135
-0.28125 -0.140625 0.937032
-0.28125 -0.125 0.937062
-0.296875 -0.125 0.941147
-0.296875 -0.15625 0.941099
-0.28125 -0.15625 0.937033
-0.28125 -0.140625 0.937032
-0.296875 -0.140625 0.941135
-0.3125 -0.15625 0.945083
-0.296875 -0.15625 0.941099
-0.296875 -0.140625 0.941135
-0.3125 -0.140625 0.945092
-0.28125 -0.140625 0.937032
-0.265625 -0.140625 0.931495
-0.265625 -0.125 0.931516
-0.28125 -0.125 0.937062
-0.265625 -0.140625 0.931495
-0.25 -0.140625 0.927697
-0.25 -0.125 0.927711
-0.265625 -0.125 0.931516
-0.265625 -0.15625 0.931443
-0.25 -0.15625 0.927689
-0.25 -0.140625 0.927697
-0.265625 -0.140625 0.931495
-0.28125 -0.15625 0.937033
-0.265625 -0.15625 0.931443
-0.265625 -0.140625 0.931495
-0.28125 -0.140625 0.937032
-0.28125 -0.171875 0.937014
-0.265625 -0.171875 0.931477
-0.265625 -0.15625 0.931443
-0.28125 -0.15625 0.937033
[...]
POINT_DATA 18536
SCALARS "density" float 1
LOOKUP_TABLE default
0.959355
0.960117
0.960118
0.959355
0.960117
0.960231
0.960231
0.960118
0.960117
0.960227
0.960231
0.960117
0.959354
0.960117
0.960117
0.959355
0.960231
0.960148
0.96015
0.960231
0.960148
0.958675
0.958563
0.96015
0.960018
0.959044
0.958675
0.960148
0.960231
0.960018
0.960148
0.960231
0.958675
0.950229
0.950225
0.958563
0.950229
0.945112
0.945107
0.950225
0.950228
0.945117
0.945112
0.950229
0.959044
0.950228
0.950229
0.958675
0.958976
0.950193
0.950228
0.959044
0.950193
0.945083
0.945117
0.950228
0.950197
0.945073
0.945083
0.950193
0.958897
0.950197
0.950193
0.958976
0.960231
0.959979
0.960018
0.960231
0.959979
0.958976
0.959044
0.960018
0.959956
0.958897
0.958976
0.959979
0.960231
0.959956
0.959979
0.960231
0.945112
0.941118
0.941076
0.945107
0.941118
0.937091
0.937014
0.941076
0.94116
0.937169
0.937091
0.941118
0.945117
0.94116
0.941118
0.945112
0.937091
0.931534
0.931534
0.937014
0.931534
0.927691
0.927688
0.931534
0.93154
0.927689
0.927691
0.931534
0.937169
0.93154
0.931534
0.937091
0.937053
0.931547
0.93154
0.937169
0.931547
0.927673
0.927689
0.93154
0.931519
0.927655
0.927673
0.931547
0.937047
0.931519
0.931547
0.937053
0.945083
0.941178
0.94116
0.945117
0.941178
0.937053
0.937169
0.94116
0.941113
0.937047
0.937053
0.941178
0.945073
0.941113
0.941178
0.945083
0.945067
0.941095
0.941113
0.945073
0.941095
0.937009
0.937047
0.941113
0.941072
0.936971
0.937009
0.941095
0.945055
0.941072
0.941095
0.945067
0.937009
0.931513
0.931519
0.937047
0.931513
0.927639
0.927655
0.931519
0.931512
0.927658
0.927639
0.931513
0.936971
0.931512
0.931513
0.937009
0.937017
0.931518
0.931512
0.936971
0.931518
0.927682
0.927658
0.931512
0.931516
0.927711
0.927682
0.931518
0.937062
0.931516
0.931518
0.937017
0.945075
0.941109
0.941072
0.945055
0.941109
0.937017
0.936971
0.941072
0.941147
0.937062
0.937017
0.941109
0.945103
0.941147
0.941109
0.945075
0.96023
0.960133
0.959956
0.960231
0.960133
0.95851
0.958897
0.959956
0.959988
0.958865
0.95851
0.960133
0.960229
0.959988
0.960133
0.96023
0.95851
0.950195
0.950197
0.958897
0.950195
0.945067
0.945073
0.950197
0.950188
0.945055
0.945067
0.950195
0.958865
0.950188
0.950195
0.95851
0.95887
0.950179
0.950188
0.958865
0.950179
0.945075
0.945055
0.950188
0.9502
0.945103
0.945075
0.950179
0.95887
0.9502
0.950179
0.95887
0.960228
0.959982
0.959988
0.960229
0.959982
0.95887
0.958865
0.959988
0.960012
0.95887
0.95887
0.959982
0.960227
0.960012
0.959982
0.960228
0.96023
0.960127
0.960012
0.960227
0.960127
0.958571
0.95887
0.960012
0.959664
0.958996
0.958571
0.960127
0.960233
0.959664
0.960127
0.96023
0.958571
0.950202
0.9502
0.95887
0.950202
0.945092
0.945103
0.9502
0.950182
0.945083
0.945092
0.950202
0.958996
0.950182
0.950202
0.958571
0.959026
0.95016
0.950182
0.958996
0.95016
0.945074
0.945083
0.950182
0.95019
0.945062
0.945074
0.95016
0.959047
0.95019
0.95016
0.959026
0.960235
0.959666
0.959664
0.960233
0.959666
0.959026
0.958996
0.959664
0.959677
0.959047
0.959026
0.959666
0.960238
0.959677
0.959666
0.960235
0.945092
0.941135
0.941147
0.945103
0.941135
0.937032
0.937062
0.941147
0.941099
0.937033
0.937032
0.941135
0.945083
0.941099
0.941135
0.945092
0.937032
0.931495
0.931516
0.937062
0.931495
0.927697
0.927711
0.931516
0.931443
0.927689
0.927697
0.931495
0.937033
0.931443
0.931495
0.937032
0.937014
0.931477
0.931443
0.937033
0.931477
0.927708
0.927689
0.931443
0.931502
0.927722
0.927708
0.931477
0.936994
0.931502
0.931477
0.937014
0.945074
0.941088
0.941099
0.945083
0.941088
0.937014
0.937033
0.941099
0.941072
0.936994
0.937014
0.941088
0.945062
0.941072
0.941088
0.945074
0.945076
0.941092
0.941072
0.945062
0.941092
0.937028
0.936994
0.941072
0.941108
0.937059
0.937028
0.941092
0.945086
0.941108
0.941092
0.945076
0.937028
0.931525
0.931502
0.936994
0.931525
0.927717
0.927722
0.931502
0.931535
0.927713
0.927717
0.931525
0.937059
0.931535
0.931525
0.937028
0.937002
0.931519
0.931535
0.937059
0.931519
0.927699
0.927713
0.931535
0.931469
0.927692
0.927699
0.931519
0.937007
0.931469
0.931519
0.937002
0.945089
0.941132
0.941108
0.945086
0.941132
0.937002
0.937059
0.941108
0.941092
0.937007
0.937002
0.941132
0.945112
0.941092
0.941132
0.945089
0.960238
0.960157
0.959677
0.960238
0.960157
0.958678
0.959047
0.959677
0.960119
0.958662
0.958678
0.960157
0.960238
0.960119
0.960157
0.960238
0.958678
0.950209
0.95019
0.959047
0.950209
0.945076
0.945062
0.95019
0.950215
0.945086
0.945076
0.950209
0.958662
0.950215
0.950209
0.958678
0.958334
0.950218
0.950215
0.958662
0.950218
0.945089
0.945086
0.950215
0.950233
0.945112
0.945089
0.950218
0.958678
0.950233
0.950218
0.958334
0.960238
0.960117
0.960119
0.960238
0.960117
0.958334
0.958662
0.960119
0.960117
0.958678
0.958334
0.960117
0.960238
0.960117
0.960117
0.960238
0.959354
0.960119
0.960117
0.959354
0.960119
0.960238
0.960227
0.960117
0.96012
0.960238
0.960238
0.960119
0.959354
0.96012
0.960119
0.959354
0.927691
0.92391
0.9239
0.927688
0.92391
0.919991
0.919973
0.9239
0.923914
0.920002
0.919991
0.92391
0.927689
0.923914
0.92391
0.927691
0.919991
0.915747
0.915745
0.919973
0.915747
0.912598
0.912559
0.915745
0.91576
0.912632
0.912598
0.915747
0.920002
0.91576
0.915747
0.919991
0.920005
0.915797
0.91576
0.920002
0.915797
0.912632
0.912632
0.91576
0.915827
0.912648
0.912632
0.915797
0.920009
0.915827
0.915797
0.920005
0.927673
0.923913
0.923914
0.927689
0.923913
0.920005
0.920002
0.923914
0.923899
0.920009
0.920005
0.923913
0.927655
0.923899
0.923913
0.927673
0.912598
0.909254
0.909203
0.912559
0.909254
0.90572
0.905657
0.909203
0.909299
0.905776
0.90572
0.909254
0.912632
0.909299
0.909254
0.912598
0.90572
0.89705
0.897047
0.905657
0.89705
0.878387
0.878382
0.897047
0.897067
0.878388
0.878387
0.89705
0.905776
0.897067
0.89705
0.90572
0.905776
0.897106
0.897067
0.905776
0.897106
0.878393
0.878388
0.897067
0.89713
0.878388
0.878393
0.897106
0.905795
0.89713
0.897106
0.905776
0.912632
0.909379
0.909299
0.912632
0.909379
0.905776
0.905776
0.909299
0.909394
0.905795
0.905776
0.909379
0.912648
0.909394
0.909379
0.912632
0.912641
0.909493
0.909394
0.912648
0.909493
0.905795
0.905795
0.909394
0.909344
0.905875
0.905795
0.909493
0.912697
0.909344
0.909493
0.912641
0.905795
0.897125
0.89713
0.905795
0.897125
0.878367
0.878388
0.89713
0.897092
0.878341
0.878367
0.897125
0.905875
0.897092
0.897125
0.905795
0.90583
0.897066
0.897092
0.905875
0.897066
0.878322
0.878341
0.897092
0.897036
0.878306
0.878322
0.897066
0.905773
0.897036
0.897066
0.90583
0.91269
0.909322
0.909344
0.912697
0.909322
0.90583
0.905875
0.909344
0.909288
0.905773
0.90583
0.909322
0.91267
0.909288
0.909322
0.91269
0.927639
0.923923
0.923899
0.927655
0.923923
0.919976
0.920009
0.923899
0.923891
0.919991
0.919976
0.923923
0.927658
0.923891
0.923923
0.927639
0.919976
0.91582
0.915827
0.920009
0.91582
0.912641
0.912648
0.915827
0.915788
0.912697
0.912641
0.91582
0.919991
0.915788
0.91582
0.919976
0.920018
0.915794
0.915788
0.919991
0.915794
0.91269
0.912697
0.915788
0.915797
0.91267
0.91269
0.915794
0.920073
0.915797
0.915794
0.920018
0.927682
0.923931
0.923891
0.927658
0.923931
0.920018
0.919991
0.923891
0.923942
0.920073
0.920018
0.923931
0.927711
0.923942
0.923931
0.927682
0.878384
0.861552
0.861552
0.878382
0.861552
0.844761
0.844763
0.861552
0.861552
0.844758
0.844761
0.861552
0.878387
0.861552
0.861552
0.878384
0.844758
0.798152
0.798169
0.844763
0.844753
0.798171
0.798152
0.844758
0.878387
0.861551
0.861552
0.878387
0.861551
0.844756
0.844758
0.861552
0.861551
0.844753
0.844756
0.861551
0.878388
0.861551
0.861551
0.878387
0.798152
0.737037
0.737071
0.798169
0.737054
0.703856
0.703878
0.737071
0.703856
0.669539
0.669536
0.703878
0.703858
0.669535
0.669539
0.703856
0.737037
0.703858
0.703856
0.737054
0.737048
0.703866
0.703858
0.737037
0.703866
0.669559
0.669535
0.703858
0.703889
0.669583
0.669559
0.703866
0.73706
0.703889
0.703866
0.737048
0.798171
0.73706
0.737037
0.798152
0.798154
0.73704
0.73706
0.798171
0.73705
0.703864
0.703889
0.73706
0.703864
0.669558
0.669583
0.703889
0.703855
0.669531
0.669558
0.703864
0.73704
0.703855
0.703864
0.73705
0.737034
0.703838
0.703855
0.73704
0.703838
0.669515
0.669531
0.703855
0.703838
0.669503
0.669515
0.703838
0.737028
0.703838
0.703838
0.737034
0.798137
0.737028
0.73704
0.798154
0.87839
0.861549
0.861551
0.878388
0.861549
0.844748
0.844753
0.861551
0.861548
0.844743
0.844748
0.861549
0.878393
0.861548
0.861549
0.87839
0.844743
0.798154
0.798171
0.844753
0.844725
0.798137
0.798154
0.844743
0.87839
0.861542
0.861548
0.878393
0.861542
0.844734
0.844743
0.861548
0.861536
0.844725
0.844734
0.861542
0.878388
0.861536
0.861542
0.87839
0.669538
0.631737
0.631991
0.669536
0.631737
0.613807
0.61384
0.631991
0.631745
0.61377
0.613807
0.631737
0.669539
0.631745
0.631737
0.669538
0.613807
0.604721
0.60473
0.61384
0.604721
0.597475
0.597479
0.60473
0.604703
0.597465
0.597475
0.604721
0.61377
0.604703
0.604721
0.613807
0.613739
0.604684
0.604703
0.61377
0.604684
0.597454
0.597465
0.604703
0.604675
0.597449
0.597454
0.604684
0.613719
0.604675
0.604684
0.613739
0.669537
0.631666
0.631745
0.669539
0.631666
0.613739
0.61377
0.631745
0.63168
0.613719
0.613739
0.631666
0.669535
0.63168
0.631666
0.669537
0.597475
0.590096
0.590099
0.597479
0.590096
0.583509
0.583509
0.590099
0.590089
0.583505
0.583509
0.590096
0.597465
0.590089
0.590096
0.597475
0.583509
0.579242
0.579228
0.583509
0.579242
0.577797
0.577797
0.579228
0.579242
0.577798
0.577797
0.579242
0.583505
0.579242
0.579242
0.583509
0.583499
0.579236
0.579242
0.583505
0.579236
0.577799
0.577798
0.579242
0.579229
0.577799
0.577799
0.579236
0.583494
0.579229
0.579236
0.583499
0.597454
0.590082
0.590089
0.597465
0.590082
0.583499
0.583505
0.590089
0.590078
0.583494
0.583499
0.590082
0.597449
0.590078
0.590082
0.597454
0.597452
0.590079
0.590078
0.597449
0.590079
0.583493
0.583494
0.590078
0.590085
0.583496
0.583493
0.590079
0.597464
0.590085
0.590079
0.597452
0.583493
0.57923
0.579229
0.583494
0.57923
0.577801
0.577799
0.579229
0.579233
0.577804
0.577801
0.57923
0.583496
0.579233
0.57923
0.583493
0.583501
0.579233
0.579233
0.583496
0.579233
0.577806
0.577804
0.579233
0.579232
0.577808
0.577806
0.579233
0.583505
0.579232
0.579233
0.583501
0.597481
0.590096
0.590085
0.597464
0.590096
0.583501
0.583496
0.590085
0.590104
0.583505
0.583501
0.590096
0.597494
0.590104
0.590096
0.597481
0.669547
0.631666
0.63168
0.669535
0.631666
0.613736
0.613719
0.63168
0.631738
0.613764
0.613736
0.631666
0.669559
0.631738
0.631666
0.669547
0.613736
0.604683
0.604675
0.613719
0.604683
0.597452
0.597449
0.604675
0.604702
0.597464
0.597452
0.604683
0.613764
0.604702
0.604683
0.613736
0.6138
0.604728
0.604702
0.613764
0.604728
0.597481
0.597464
0.604702
0.604747
0.597494
0.597481
0.604728
0.613831
0.604747
0.604728
0.6138
0.669571
0.631726
0.631738
0.669559
0.631726
0.6138
0.613764
0.631738
0.631841
0.613831
0.6138
0.631726
0.669583
0.631841
0.631726
0.669571
0.577799
0.576262
0.576244
0.577797
0.576248
0.574161
0.574163
0.576244
0.574161
0.57416
0.574161
0.574163
0.57416
0.57416
0.57416
0.574161
0.576253
0.57416
0.574161
0.576248
0.57416
0.574177
0.574181
0.574161
0.574177
0.574239
0.574228
0.574181
0.574173
0.574244
0.574239
0.574177
0.57416
0.574173
0.574177
0.57416
0.574159
0.57417
0.574173
0.57416
0.57417
0.574249
0.574244
0.574173
0.574168
0.574252
0.574249
0.57417
0.574159
0.574168
0.57417
0.574159
0.576257
0.57416
0.57416
0.576253
0.57416
0.574159
0.57416
0.57416
0.57416
0.574159
0.574159
0.57416
0.576262
0.57416
0.57416
0.576257
0.576268
0.574159
0.57416
0.576262
0.574159
0.574159
0.574159
0.57416
0.574159
0.574159
0.574159
0.574159
0.576273
0.574159
0.574159
0.576268
0.574159
0.574167
0.574168
0.574159
0.574167
0.574256
0.574252
0.574168
0.574167
0.574259
0.574256
0.574167
0.574159
0.574167
0.574167
0.574159
0.574159
0.574169
0.574167
0.574159
0.574169
0.574261
0.574259
0.574167
0.574171
0.574261
0.574261
0.574169
0.574159
0.574171
0.574169
0.574159
0.576279
0.57416
0.574159
0.576273
0.57416
0.574159
0.574159
0.574159
0.57416
0.574159
0.574159
0.57416
0.576285
0.57416
0.57416
0.576279
0.577808
0.576285
0.576262
0.577799
0.577809
0.576296
0.576285
0.577808
0.576288
0.57416
0.57416
0.576285
0.57416
0.57416
0.574159
0.57416
0.574161
0.57416
0.57416
0.57416
0.57629
0.574161
0.57416
0.576288
0.57416
0.574173
0.574171
0.574159
0.574173
0.574262
0.574261
0.574171
0.574175
0.574262
0.574262
0.574173
0.57416
0.574175
0.574173
0.57416
0.574161
0.574177
0.574175
0.57416
0.574177
0.574262
0.574262
0.574175
0.574178
0.574262
0.574262
0.574177
0.574161
0.574178
0.574177
0.574161
0.576293
0.574161
0.574161
0.57629
0.574161
0.574161
0.57416
0.574161
0.574162
0.574161
0.574161
0.574161
0.576296
0.574162
0.574161
0.576293
0.576296
0.574163
0.574162
0.576296
0.574163
0.574162
0.574161
0.574162
0.574164
0.574163
0.574162
0.574163
0.576296
0.574164
0.574163
0.576296
0.574162
0.574179
0.574178
0.574161
0.574179
0.574262
0.574262
0.574178
0.57418
0.574262
0.574262
0.574179
0.574163
0.57418
0.574179
0.574162
0.574164
0.574181
0.57418
0.574163
0.574181
0.574262
0.574262
0.57418
0.574182
0.574262
0.574262
0.574181
0.574165
0.574182
0.574181
0.574164
0.576296
0.574164
0.574164
0.576296
0.574164
0.574164
0.574163
0.574164
0.574166
0.574165
0.574164
0.574164
0.576296
0.574166
0.574164
0.576296
0.577805
0.576296
0.576296
0.577809
0.66957
0.631744
0.631841
0.669583
0.631744
0.613822
0.613831
0.631841
0.631757
0.613792
0.613822
0.631744
0.669558
0.631757
0.631744
0.66957
0.613822
0.604745
0.604747
0.613831
0.604745
0.597492
0.597494
0.604747
0.604723
0.597476
0.597492
0.604745
0.613792
0.604723
0.604745
0.613822
0.613761
0.604695
0.604723
0.613792
0.604695
0.597455
0.597476
0.604723
0.604672
0.597437
0.597455
0.604695
0.613732
0.604672
0.604695
0.613761
0.669544
0.631698
0.631757
0.669558
0.631698
0.613761
0.613792
0.631757
0.631716
0.613732
0.613761
0.631698
0.669531
0.631716
0.631698
0.669544
0.597492
0.590102
0.590104
0.597494
0.590102
0.583505
0.583505
0.590104
0.590091
0.583498
0.583505
0.590102
0.597476
0.590091
0.590102
0.597492
0.583505
0.579236
0.579232
0.583505
0.579236
0.577808
0.577808
0.579232
0.579234
0.577809
0.577808
0.579236
0.583498
0.579234
0.579236
0.583505
0.583488
0.579227
0.579234
0.583498
0.579227
0.577809
0.577809
0.579234
0.579218
0.577809
0.577809
0.579227
0.583477
0.579218
0.579227
0.583488
0.597455
0.590076
0.590091
0.597476
0.590076
0.583488
0.583498
0.590091
0.590062
0.583477
0.583488
0.590076
0.597437
0.590062
0.590076
0.597455
0.597423
0.59005
0.590062
0.597437
0.59005
0.583469
0.583477
0.590062
0.590039
0.583462
0.583469
0.59005
0.597407
0.590039
0.59005
0.597423
0.583469
0.579218
0.579218
0.583477
0.579218
0.577808
0.577809
0.579218
0.579215
0.577807
0.577808
0.579218
0.583462
0.579215
0.579218
0.583469
0.583456
0.579211
0.579215
0.583462
0.579211
0.577806
0.577807
0.579215
0.579206
0.577805
0.577806
0.579211
0.583457
0.579206
0.579211
0.583456
0.597395
0.59003
0.590039
0.597407
0.59003
0.583456
0.583462
0.590039
0.590031
0.583457
0.583456
0.59003
0.597395
0.590031
0.59003
0.597395
0.669523
0.631644
0.631716
0.669531
0.631644
0.613714
0.613732
0.631716
0.631658
0.613686
0.613714
0.631644
0.669515
0.631658
0.631644
0.669523
0.613714
0.604656
0.604672
0.613732
0.604656
0.597423
0.597437
0.604672
0.604635
0.597407
0.597423
0.604656
0.613686
0.604635
0.604656
0.613714
0.61366
0.604617
0.604635
0.613686
0.604617
0.597395
0.597407
0.604635
0.604618
0.597395
0.597395
0.604617
0.61367
0.604618
0.604617
0.61366
0.669509
0.631574
0.631658
0.669515
0.631574
0.61366
0.613686
0.631658
0.631664
0.61367
0.61366
0.631574
0.669503
0.631664
0.631574
0.669509
0.669521
0.631649
0.631664
0.669503
0.631649
0.613706
0.61367
0.631664
0.631723
0.613744
0.613706
0.631649
0.669539
0.631723
0.631649
0.669521
0.613706
0.604641
0.604618
0.61367
0.604641
0.597409
0.597395
0.604618
0.604674
0.597433
0.597409
0.604641
0.613744
0.604674
0.604641
0.613706
0.613781
0.604704
0.604674
0.613744
0.604704
0.597455
0.597433
0.604674
0.604721
0.597469
0.597455
0.604704
0.613807
0.604721
0.604704
0.613781
0.669556
0.631711
0.631723
0.669539
0.631711
0.613781
0.613744
0.631723
0.631823
0.613807
0.613781
0.631711
0.669573
0.631823
0.631711
0.669556
0.597409
0.590041
0.590031
0.597395
0.590041
0.583464
0.583457
0.590031
0.590057
0.583474
0.583464
0.590041
0.597433
0.590057
0.590041
0.597409
0.583464
0.579215
0.579206
0.583457
0.579215
0.577806
0.577805
0.579206
0.579221
0.577806
0.577806
0.579215
0.583474
0.579221
0.579215
0.583464
0.583484
0.579223
0.579221
0.583474
0.579223
0.577807
0.577806
0.579221
0.579223
0.577807
0.577807
0.579223
0.58349
0.579223
0.579223
0.583484
0.597455
0.590073
0.590057
0.597433
0.590073
0.583484
0.583474
0.590057
0.590083
0.58349
0.583484
0.590073
0.597469
0.590083
0.590073
0.597455
0.597473
0.590086
0.590083
0.597469
0.590086
0.583492
0.58349
0.590083
0.590082
0.583488
0.583492
0.590086
0.597467
0.590082
0.590086
0.597473
0.583492
0.579227
0.579223
0.58349
0.579227
0.577806
0.577807
0.579223
0.579225
0.577804
0.577806
0.579227
0.583488
0.579225
0.579227
0.583492
0.583481
0.57922
0.579225
0.583488
0.57922
0.577803
0.577804
0.579225
0.57921
0.577801
0.577803
0.57922
0.583471
0.57921
0.57922
0.583481
0.597454
0.590071
0.590082
0.597467
0.590071
0.583481
0.583488
0.590082
0.590058
0.583471
0.583481
0.590071
0.597436
0.590058
0.590071
0.597454
0.669562
0.63173
0.631823
0.669573
0.63173
0.6138
0.613807
0.631823
0.631744
0.613782
0.6138
0.63173
0.669551
0.631744
0.63173
0.669562
0.6138
0.604723
0.604721
0.613807
0.604723
0.597473
0.597469
0.604721
0.604714
0.597467
0.597473
0.604723
0.613782
0.604714
0.604723
0.6138
0.613765
0.604697
0.604714
0.613782
0.604697
0.597454
0.597467
0.604714
0.604673
0.597436
0.597454
0.604697
0.613735
0.604673
0.604697
0.613765
0.669538
0.631698
0.631744
0.669551
0.631698
0.613765
0.613782
0.631744
0.631716
0.613735
0.613765
0.631698
0.669526
0.631716
0.631698
0.669538
0.577807
0.576295
0.576296
0.577805
0.576296
0.574166
0.574166
0.576296
0.574166
0.574165
0.574165
0.574166
0.574167
0.574166
0.574165
0.574166
0.576295
0.574167
0.574166
0.576296
0.574165
0.574183
0.574182
0.574165
0.574183
0.574262
0.574262
0.574182
0.574185
0.574262
0.574262
0.574183
0.574166
0.574185
0.574183
0.574165
0.574167
0.574186
0.574185
0.574166
0.574186
0.574262
0.574262
0.574185
0.574187
0.574262
0.574262
0.574186
0.574168
0.574187
0.574186
0.574167
0.576295
0.574168
0.574167
0.576295
0.574168
0.574167
0.574166
0.574167
0.574169
0.574168
0.574167
0.574168
0.576295
0.574169
0.574168
0.576295
0.576293
0.57417
0.574169
0.576295
0.57417
0.574169
0.574168
0.574169
0.574171
0.57417
0.574169
0.57417
0.576292
0.574171
0.57417
0.576293
0.574169
0.574187
0.574187
0.574168
0.574187
0.574261
0.574262
0.574187
0.574188
0.574261
0.574261
0.574187
0.57417
0.574188
0.574187
0.574169
0.574171
0.574188
0.574188
0.57417
0.574188
0.574261
0.574261
0.574188
0.574188
0.574261
0.574261
0.574188
0.574172
0.574188
0.574188
0.574171
0.576291
0.574172
0.574171
0.576292
0.574172
0.574171
0.57417
0.574171
0.574173
0.574172
0.574171
0.574172
0.576289
0.574173
0.574172
0.576291
0.577801
0.576289
0.576295
0.577807
0.577799
0.576285
0.576289
0.577801
0.576288
0.574173
0.574173
0.576289
0.574173
0.574173
0.574172
0.574173
0.574174
0.574173
0.574173
0.574173
0.576287
0.574174
0.574173
0.576288
0.574173
0.574188
0.574188
0.574172
0.574188
0.574261
0.574261
0.574188
0.574189
0.574261
0.574261
0.574188
0.574173
0.574189
0.574188
0.574173
0.574174
0.57419
0.574189
0.574173
0.57419
0.57426
0.574261
0.574189
0.574191
0.574259
0.57426
0.57419
0.574175
0.574191
0.57419
0.574174
0.576286
0.574175
0.574174
0.576287
0.574175
0.574174
0.574173
0.574174
0.574176
0.574175
0.574174
0.574175
0.576285
0.574176
0.574175
0.576286
0.576286
0.574176
0.574176
0.576285
0.574176
0.574176
0.574175
0.574176
0.574177
0.574177
0.574176
0.574176
0.576286
0.574177
0.574176
0.576286
0.574176
0.574191
0.574191
0.574175
0.574191
0.574258
0.574259
0.574191
0.574192
0.574259
0.574258
0.574191
0.574177
0.574192
0.574191
0.574176
0.574177
0.574192
0.574192
0.574177