# vtk DataFile Version 2.0

ASCII

DATASET UNSTRUCTURED_GRID
POINTS 23028 float
-0.5 -0.03125 0.00111825
-0.46875 -0.03125 0.00218548
-0.46875 0 0.00218552
-0.5 0 0.00111922
-0.46875 -0.015625 0.0021855
-0.453125 -0.015625 0.00454392
-0.453125 0 0.00453809
-0.46875 0 0.00218552
-0.453125 -0.015625 0.00454392
-0.4375 -0.015625 0.00782859
-0.4375 0 0.00782889
-0.453125 0 0.00453809
-0.453125 -0.03125 0.00454246
-0.4375 -0.03125 0.00782825
-0.4375 -0.015625 0.00782859
-0.453125 -0.015625 0.00454392
-0.46875 -0.03125 0.00218548
-0.453125 -0.03125 0.00454246
-0.453125 -0.015625 0.00454392
-0.46875 -0.015625 0.0021855
-0.46875 -0.046875 0.00218674
-0.453125 -0.046875 0.00454782
-0.453125 -0.03125 0.00454246
-0.46875 -0.03125 0.00218548
-0.453125 -0.046875 0.00454782
-0.4375 -0.046875 0.00782839
-0.4375 -0.03125 0.00782825
-0.453125 -0.03125 0.00454246
-0.453125 -0.0625 0.00455018
-0.4375 -0.0625 0.00782981
-0.4375 -0.046875 0.00782839
-0.453125 -0.046875 0.00454782
-0.46875 -0.0625 0.00218799
-0.453125 -0.0625 0.00455018
-0.453125 -0.046875 0.00454782
-0.46875 -0.046875 0.00218674
-0.5 -0.0625 0.0011146
-0.46875 -0.0625 0.00218799
-0.46875 -0.03125 0.00218548
-0.5 -0.03125 0.00111825
-0.4375 -0.015625 0.00782859
-0.421875 -0.015625 0.0116039
-0.421875 0 0.0116044
-0.4375 0 0.00782889
-0.421875 -0.015625 0.0116039
-0.40625 -0.015625 0.0162386
-0.40625 0 0.0162391
-0.421875 0 0.0116044
-0.421875 -0.03125 0.0116026
-0.40625 -0.03125 0.0162369
-0.40625 -0.015625 0.0162386
-0.421875 -0.015625 0.0116039
-0.4375 -0.03125 0.00782825
-0.421875 -0.03125 0.0116026
-0.421875 -0.015625 0.0116039
-0.4375 -0.015625 0.00782859
-0.40625 -0.015625 0.0162386
-0.390625 -0.015625 0.0219913
-0.390625 0 0.021992
-0.40625 0 0.0162391
-0.390625 -0.015625 0.0219913
-0.375 -0.015625 0.0290776
-0.375 0 0.0290788
-0.390625 0 0.021992
-0.390625 -0.03125 0.021989
-0.375 -0.03125 0.0290739
-0.375 -0.015625 0.0290776
-0.390625 -0.015625 0.0219913
-0.40625 -0.03125 0.0162369
-0.390625 -0.03125 0.021989
-0.390625 -0.015625 0.0219913
-0.40625 -0.015625 0.0162386
-0.40625 -0.046875 0.0162342
-0.390625 -0.046875 0.021985
-0.390625 -0.03125 0.021989
-0.40625 -0.03125 0.0162369
-0.390625 -0.046875 0.021985
-0.375 -0.046875 0.0290675
-0.375 -0.03125 0.0290739
-0.390625 -0.03125 0.021989
-0.390625 -0.0625 0.021979
-0.375 -0.0625 0.0290584
-0.375 -0.046875 0.0290675
-0.390625 -0.046875 0.021985
-0.40625 -0.0625 0.0162306
-0.390625 -0.0625 0.021979
-0.390625 -0.046875 0.021985
-0.40625 -0.046875 0.0162342
-0.4375 -0.046875 0.00782839
-0.421875 -0.046875 0.011601
-0.421875 -0.03125 0.0116026
-0.4375 -0.03125 0.00782825
-0.421875 -0.046875 0.011601
-0.40625 -0.046875 0.0162342
-0.40625 -0.03125 0.0162369
-0.421875 -0.03125 0.0116026
-0.421875 -0.0625 0.0115996
-0.40625 -0.0625 0.0162306
-0.40625 -0.046875 0.0162342
-0.421875 -0.046875 0.011601
-0.4375 -0.0625 0.00782981
-0.421875 -0.0625 0.0115996
-0.421875 -0.046875 0.011601
-0.4375 -0.046875 0.00782839
-0.4375 -0.078125 0.00783281
-0.421875 -0.078125 0.0115989
-0.421875 -0.0625 0.0115996
-0.4375 -0.0625 0.00782981
-0.421875 -0.078125 0.0115989
-0.40625 -0.078125 0.0162266
-0.40625 -0.0625 0.0162306
-0.421875 -0.0625 0.0115996
-0.421875 -0.09375 0.0115987
-0.40625 -0.09375 0.0162227
-0.40625 -0.078125 0.0162266
-0.421875 -0.078125 0.0115989
-0.4375 -0.09375 0.00783707
-0.421875 -0.09375 0.0115987
-0.421875 -0.078125 0.0115989
-0.4375 -0.078125 0.00783281
-0.40625 -0.078125 0.0162266
-0.390625 -0.078125 0.0219716
-0.390625 -0.0625 0.021979
-0.40625 -0.0625 0.0162306
-0.390625 -0.078125 0.0219716
-0.375 -0.078125 0.0290471
-0.375 -0.0625 0.0290584
-0.390625 -0.0625 0.021979
-0.390625 -0.09375 0.0219636
-0.375 -0.09375 0.0290345
-0.375 -0.078125 0.0290471
-0.390625 -0.078125 0.0219716
-0.40625 -0.09375 0.0162227
-0.390625 -0.09375 0.0219636
-0.390625 -0.078125 0.0219716
-0.40625 -0.078125 0.0162266
-0.40625 -0.109375 0.0162193
-0.390625 -0.109375 0.0219557
-0.390625 -0.09375 0.0219636
-0.40625 -0.09375 0.0162227
-0.390625 -0.109375 0.0219557
-0.375 -0.109375 0.0290213
-0.375 -0.09375 0.0290345
-0.390625 -0.09375 0.0219636
-0.390625 -0.125 0.0219484
-0.375 -0.125 0.0290083
-0.375 -0.109375 0.0290213
-0.390625 -0.109375 0.0219557
-0.40625 -0.125 0.0162168
-0.390625 -0.125 0.0219484
-0.390625 -0.109375 0.0219557
-0.40625 -0.109375 0.0162193
-0.4375 -0.109375 0.00784198
-0.421875 -0.109375 0.0115993
-0.421875 -0.09375 0.0115987
-0.4375 -0.09375 0.00783707
-0.421875 -0.109375 0.0115993
-0.40625 -0.109375 0.0162193
-0.40625 -0.09375 0.0162227
-0.421875 -0.09375 0.0115987
-0.421875 -0.125 0.0116006
-0.40625 -0.125 0.0162168
-0.40625 -0.109375 0.0162193
-0.421875 -0.109375 0.0115993
-0.4375 -0.125 0.00784732
-0.421875 -0.125 0.0116006
-0.421875 -0.109375 0.0115993
-0.4375 -0.109375 0.00784198
-0.5 -0.09375 0.00110966
-0.46875 -0.09375 0.00219546
-0.46875 -0.0625 0.00218799
-0.5 -0.0625 0.0011146
-0.46875 -0.078125 0.00219173
-0.453125 -0.078125 0.00456035
-0.453125 -0.0625 0.00455018
-0.46875 -0.0625 0.00218799
-0.453125 -0.078125 0.00456035
-0.4375 -0.078125 0.00783281
-0.4375 -0.0625 0.00782981
-0.453125 -0.0625 0.00455018
-0.453125 -0.09375 0.00456759
-0.4375 -0.09375 0.00783707
-0.4375 -0.078125 0.00783281
-0.453125 -0.078125 0.00456035
-0.46875 -0.09375 0.00219546
-0.453125 -0.09375 0.00456759
-0.453125 -0.078125 0.00456035
-0.46875 -0.078125 0.00219173
-0.46875 -0.109375 0.00220318
-0.453125 -0.109375 0.00458257
-0.453125 -0.09375 0.00456759
-0.46875 -0.09375 0.00219546
-0.453125 -0.109375 0.00458257
-0.4375 -0.109375 0.00784198
-0.4375 -0.09375 0.00783707
-0.453125 -0.09375 0.00456759
-0.453125 -0.125 0.00459317
-0.4375 -0.125 0.00784732
-0.4375 -0.109375 0.00784198
-0.453125 -0.109375 0.00458257
-0.46875 -0.125 0.00221089
-0.453125 -0.125 0.00459317
-0.453125 -0.109375 0.00458257
-0.46875 -0.109375 0.00220318
-0.5 -0.125 0.00110506
-0.46875 -0.125 0.00221089
-0.46875 -0.09375 0.00219546
-0.5 -0.09375 0.00110966
-0.375 -0.015625 0.0290776
-0.359375 -0.015625 0.0376874
-0.359375 0 0.0376893
-0.375 0 0.0290788
-0.359375 -0.015625 0.0376874
-0.34375 -0.015625 0.0479902
-0.34375 0 0.0479931
-0.359375 0 0.0376893
-0.359375 -0.03125 0.0376815
-0.34375 -0.03125 0.0479815
-0.34375 -0.015625 0.0479902
-0.359375 -0.015625 0.0376874
-0.375 -0.03125 0.0290739
-0.359375 -0.03125 0.0376815
-0.359375 -0.015625 0.0376874
-0.375 -0.015625 0.0290776
-0.34375 -0.015625 0.0479902
-0.328125 -0.015625 0.0601336
-0.328125 0 0.0601376
-0.34375 0 0.0479931
-0.328125 -0.015625 0.0601336
-0.3125 -0.015625 0.0742374
-0.3125 0 0.0742426
-0.328125 0 0.0601376
-0.328125 -0.03125 0.0601217
-0.3125 -0.03125 0.0742221
-0.3125 -0.015625 0.0742374
-0.328125 -0.015625 0.0601336
-0.34375 -0.03125 0.0479815
-0.328125 -0.03125 0.0601217
-0.328125 -0.015625 0.0601336
-0.34375 -0.015625 0.0479902
-0.34375 -0.046875 0.0479674
-0.328125 -0.046875 0.0601028
-0.328125 -0.03125 0.0601217
-0.34375 -0.03125 0.0479815
-0.328125 -0.046875 0.0601028
-0.3125 -0.046875 0.0741979
-0.3125 -0.03125 0.0742221
-0.328125 -0.03125 0.0601217
-0.328125 -0.0625 0.0600778
-0.3125 -0.0625 0.0741659
-0.3125 -0.046875 0.0741979
-0.328125 -0.046875 0.0601028
-0.34375 -0.0625 0.0479487
-0.328125 -0.0625 0.0600778
-0.328125 -0.046875 0.0601028
-0.34375 -0.046875 0.0479674
-0.375 -0.046875 0.0290675
-0.359375 -0.046875 0.0376716
-0.359375 -0.03125 0.0376815
-0.375 -0.03125 0.0290739
-0.359375 -0.046875 0.0376716
-0.34375 -0.046875 0.0479674
-0.34375 -0.03125 0.0479815
-0.359375 -0.03125 0.0376815
-0.359375 -0.0625 0.0376583
-0.34375 -0.0625 0.0479487
-0.34375 -0.046875 0.0479674
-0.359375 -0.046875 0.0376716
-0.375 -0.0625 0.0290584
-0.359375 -0.0625 0.0376583
-0.359375 -0.046875 0.0376716
-0.375 -0.046875 0.0290675
-0.3125 -0.015625 0.0742374
-0.296875 -0.015625 0.0903911
-0.296875 0 0.0903976
-0.3125 0 0.0742426
-0.304688 -0.015625 0.0822654
-0.296875 -0.0078125 0.0903943
-0.304688 0 0.0822713
-0.3125 -0.0078125 0.07424
-0.304688 -0.0078125 0.0822683
-0.296875 -0.015625 0.0903911
-0.28125 -0.015625 0.108657
-0.28125 0 0.108665
-0.296875 0 0.0903976
-0.289062 -0.015625 0.0994602
-0.28125 -0.0078125 0.108661
-0.289062 0 0.0994674
-0.296875 -0.0078125 0.0903943
-0.289062 -0.0078125 0.0994638
-0.296875 -0.03125 0.090372
-0.28125 -0.03125 0.108634
-0.28125 -0.015625 0.108657
-0.296875 -0.015625 0.0903911
-0.289062 -0.03125 0.0994391
-0.28125 -0.0234375 0.108645
-0.289062 -0.015625 0.0994602
-0.296875 -0.0234375 0.0903815
-0.289062 -0.0234375 0.0994496
-0.3125 -0.03125 0.0742221
-0.296875 -0.03125 0.090372
-0.296875 -0.015625 0.0903911
-0.3125 -0.015625 0.0742374
-0.28125 -0.015625 0.108657
-0.265625 -0.015625 0.129074
-0.265625 0 0.129084
-0.28125 0 0.108665
-0.273438 -0.015625 0.118784
-0.265625 -0.0078125 0.129079
-0.273438 0 0.118793
-0.28125 -0.0078125 0.108661
-0.273438 -0.0078125 0.118789
-0.265625 -0.015625 0.129074
-0.25 -0.015625 0.151663
-0.25 0 0.151674
-0.265625 0 0.129084
-0.257812 -0.015625 0.140267
-0.25 -0.0078125 0.151668
-0.257812 0 0.140277
-0.265625 -0.0078125 0.129079
-0.257812 -0.0078125 0.140272
-0.265625 -0.03125 0.129047
-0.25 -0.03125 0.151632
-0.25 -0.015625 0.151663
-0.265625 -0.015625 0.129074
-0.257812 -0.03125 0.140238
-0.25 -0.0234375 0.151647
-0.257812 -0.015625 0.140267
-0.265625 -0.0234375 0.129061
-0.257812 -0.0234375 0.140252
-0.28125 -0.03125 0.108634
-0.265625 -0.03125 0.129047
-0.265625 -0.015625 0.129074
-0.28125 -0.015625 0.108657
-0.273438 -0.03125 0.118759
-0.265625 -0.0234375 0.129061
-0.273438 -0.015625 0.118784
-0.28125 -0.0234375 0.108645
-0.273438 -0.0234375 0.118772
-0.28125 -0.046875 0.108598
-0.265625 -0.046875 0.129006
-0.265625 -0.03125 0.129047
-0.28125 -0.03125 0.108634
-0.273438 -0.046875 0.118721
-0.265625 -0.0390625 0.129027
-0.273438 -0.03125 0.118759
-0.28125 -0.0390625 0.108616
-0.273438 -0.0390625 0.11874
-0.265625 -0.046875 0.129006
-0.25 -0.046875 0.151586
-0.25 -0.03125 0.151632
-0.265625 -0.03125 0.129047
-0.257812 -0.046875 0.140194
-0.25 -0.0390625 0.151609
-0.257812 -0.03125 0.140238
-0.265625 -0.0390625 0.129027
[...]
POINT_DATA 23028
SCALARS "velocity_x" float 1
LOOKUP_TABLE default
0.00111825
0.00218548
0.00218552
0.00111922
0.0021855
0.00454392
0.00453809
0.00218552
0.00454392
0.00782859
0.00782889
0.00453809
0.00454246
0.00782825
0.00782859
0.00454392
0.00218548
0.00454246
0.00454392
0.0021855
0.00218674
0.00454782
0.00454246
0.00218548
0.00454782
0.00782839
0.00782825
0.00454246
0.00455018
0.00782981
0.00782839
0.00454782
0.00218799
0.00455018
0.00454782
0.00218674
0.0011146
0.00218799
0.00218548
0.00111825
0.00782859
0.0116039
0.0116044
0.00782889
0.0116039
0.0162386
0.0162391
0.0116044
0.0116026
0.0162369
0.0162386
0.0116039
0.00782825
0.0116026
0.0116039
0.00782859
0.0162386
0.0219913
0.021992
0.0162391
0.0219913
0.0290776
0.0290788
0.021992
0.021989
0.0290739
0.0290776
0.0219913
0.0162369
0.021989
0.0219913
0.0162386
0.0162342
0.021985
0.021989
0.0162369
0.021985
0.0290675
0.0290739
0.021989
0.021979
0.0290584
0.0290675
0.021985
0.0162306
0.021979
0.021985
0.0162342
0.00782839
0.011601
0.0116026
0.00782825
0.011601
0.0162342
0.0162369
0.0116026
0.0115996
0.0162306
0.0162342
0.011601
0.00782981
0.0115996
0.011601
0.00782839
0.00783281
0.0115989
0.0115996
0.00782981
0.0115989
0.0162266
0.0162306
0.0115996
0.0115987
0.0162227
0.0162266
0.0115989
0.00783707
0.0115987
0.0115989
0.00783281
0.0162266
0.0219716
0.021979
0.0162306
0.0219716
0.0290471
0.0290584
0.021979
0.0219636
0.0290345
0.0290471
0.0219716
0.0162227
0.0219636
0.0219716
0.0162266
0.0162193
0.0219557
0.0219636
0.0162227
0.0219557
0.0290213
0.0290345
0.0219636
0.0219484
0.0290083
0.0290213
0.0219557
0.0162168
0.0219484
0.0219557
0.0162193
0.00784198
0.0115993
0.0115987
0.00783707
0.0115993
0.0162193
0.0162227
0.0115987
0.0116006
0.0162168
0.0162193
0.0115993
0.00784732
0.0116006
0.0115993
0.00784198
0.00110966
0.00219546
0.00218799
0.0011146
0.00219173
0.00456035
0.00455018
0.00218799
0.00456035
0.00783281
0.00782981
0.00455018
0.00456759
0.00783707
0.00783281
0.00456035
0.00219546
0.00456759
0.00456035
0.00219173
0.00220318
0.00458257
0.00456759
0.00219546
0.00458257
0.00784198
0.00783707
0.00456759
0.00459317
0.00784732
0.00784198
0.00458257
0.00221089
0.00459317
0.00458257
0.00220318
0.00110506
0.00221089
0.00219546
0.00110966
0.0290776
0.0376874
0.0376893
0.0290788
0.0376874
0.0479902
0.0479931
0.0376893
0.0376815
0.0479815
0.0479902
0.0376874
0.0290739
0.0376815
0.0376874
0.0290776
0.0479902
0.0601336
0.0601376
0.0479931
0.0601336
0.0742374
0.0742426
0.0601376
0.0601217
0.0742221
0.0742374
0.0601336
0.0479815
0.0601217
0.0601336
0.0479902
0.0479674
0.0601028
0.0601217
0.0479815
0.0601028
0.0741979
0.0742221
0.0601217
0.0600778
0.0741659
0.0741979
0.0601028
0.0479487
0.0600778
0.0601028
0.0479674
0.0290675
0.0376716
0.0376815
0.0290739
0.0376716
0.0479674
0.0479815
0.0376815
0.0376583
0.0479487
0.0479674
0.0376716
0.0290584
0.0376583
0.0376716
0.0290675
0.0742374
0.0903911
0.0903976
0.0742426
0.0822654
0.0903943
0.0822713
0.07424
0.0822683
0.0903911
0.108657
0.108665
0.0903976
0.0994602
0.108661
0.0994674
0.0903943
0.0994638
0.090372
0.108634
0.108657
0.0903911
0.0994391
0.108645
0.0994602
0.0903815
0.0994496
0.0742221
0.090372
0.0903911
0.0742374
0.108657
0.129074
0.129084
0.108665
0.118784
0.129079
0.118793
0.108661
0.118789
0.129074
0.151663
0.151674
0.129084
0.140267
0.151668
0.140277
0.129079
0.140272
0.129047
0.151632
0.151663
0.129074
0.140238
0.151647
0.140267
0.129061
0.140252
0.108634
0.129047
0.129074
0.108657
0.118759
0.129061
0.118784
0.108645
0.118772
0.108598
0.129006
0.129047
0.108634
0.118721
0.129027
0.118759
0.108616
0.11874
0.129006
0.151586
0.151632
0.129047
0.140194
0.151609
0.140238
0.129027
0.140216
0.128953
0.151528
0.151586
0.129006
0.140139
0.151557
0.140194
0.128979
0.140167
0.108552
0.128953
0.129006
0.108598
0.118671
0.128979
0.118721
0.108575
0.118696
0.0741979
0.0903421
0.090372
0.0742221
0.0903421
0.108598
0.108634
0.090372
0.0903028
0.108552
0.108598
0.0903421
0.0741659
0.0903028
0.0903421
0.0741979
0.0741275
0.0902556
0.0903028
0.0741659
0.0902556
0.108496
0.108552
0.0903028
0.0902018
0.108432
0.108496
0.0902556
0.0740837
0.0902018
0.0902556
0.0741275
0.108496
0.128889
0.128953
0.108552
0.118611
0.128921
0.118671
0.108524
0.118641
0.128889
0.151459
0.151528
0.128953
0.140073
0.151494
0.140139
0.128921
0.140106
0.128817
0.151381
0.151459
0.128889
0.139998
0.15142
0.140073
0.128853
0.140035
0.108432
0.128817
0.128889
0.108496
0.118543
0.128853
0.118611
0.108464
0.118577
0.108362
0.128737
0.128817
0.108432
0.118469
0.128777
0.118543
0.108397
0.118506
0.128737
0.151294
0.151381
0.128817
0.139914
0.151337
0.139998
0.128777
0.139956
0.128653
0.151201
0.151294
0.128737
0.139826
0.151247
0.139914
0.128695
0.13987
0.108288
0.128653
0.128737
0.108362
0.118389
0.128695
0.118469
0.108325
0.118429
0.0740361
0.0901429
0.0902018
0.0740837
0.0901429
0.108362
0.108432
0.0902018
0.0900809
0.108288
0.108362
0.0901429
0.0739862
0.0900809
0.0901429
0.0740361
0.0290471
0.037642
0.0376583
0.0290584
0.037642
0.0479261
0.0479487
0.0376583
0.0376237
0.0479005
0.0479261
0.037642
0.0290345
0.0376237
0.037642
0.0290471
0.0479261
0.0600477
0.0600778
0.0479487
0.0600477
0.0741275
0.0741659
0.0600778
0.0600135
0.0740837
0.0741275
0.0600477
0.0479005
0.0600135
0.0600477
0.0479261
0.047873
0.0599765
0.0600135
0.0479005
0.0599765
0.0740361
0.0740837
0.0600135
0.059938
0.0739862
0.0740361
0.0599765
0.0478445
0.059938
0.0599765
0.047873
0.0290213
0.0376041
0.0376237
0.0290345
0.0376041
0.047873
0.0479005
0.0376237
0.0375841
0.0478445
0.047873
0.0376041
0.0290083
0.0375841
0.0376041
0.0290213
0.028996
0.0375647
0.0375841
0.0290083
0.0375647
0.0478164
0.0478445
0.0375841
0.0375467
0.0477898
0.0478164
0.0375647
0.0289851
0.0375467
0.0375647
0.028996
0.0478164
0.0598995
0.059938
0.0478445
0.0598995
0.0739359
0.0739862
0.059938
0.0598625
0.073887
0.0739359
0.0598995
0.0477898
0.0598625
0.0598995
0.0478164
0.0477659
0.0598286
0.0598625
0.0477898
0.0598286
0.0738415
0.073887
0.0598625
0.0597989
0.0738012
0.0738415
0.0598286
0.0477455
0.0597989
0.0598286
0.0477659
0.0289764
0.0375312
0.0375467
0.0289851
0.0375312
0.0477659
0.0477898
0.0375467
0.0375186
0.0477455
0.0477659
0.0375312
0.0289702
0.0375186
0.0375312
0.0289764
0.0739359
0.0900179
0.0900809
0.0739862
0.0900179
0.108212
0.108288
0.0900809
0.0899562
0.108138
0.108212
0.0900179
0.073887
0.0899562
0.0900179
0.0739359
0.108212
0.128565
0.128653
0.108288
0.128565
0.151104
0.151201
0.128653
0.139734
0.151153
0.139826
0.128609
0.13978
0.128478
0.151007
0.151104
0.128565
0.139642
0.151056
0.139734
0.128522
0.139688
0.108138
0.128478
0.128565
0.108212
0.108067
0.128396
0.128478
0.108138
0.128396
0.150914
0.151007
0.128478
0.139554
0.150961
0.139642
0.128437
0.139598
0.128321
0.15083
0.150914
0.128396
0.139475
0.150872
0.139554
0.128359
0.139515
0.108004
0.128321
0.128396
0.108067
0.0738415
0.0898982
0.0899562
0.073887
0.0898982
0.108067
0.108138
0.0899562
0.0898465
0.108004
0.108067
0.0898982
0.0738012
0.0898465
0.0898982
0.0738415
0.073768
0.0898034
0.0898465
0.0738012
0.0898034
0.107951
0.108004
0.0898465
0.0897709
0.107911
0.107951
0.0898034
0.0737431
0.0897709
0.0898034
0.073768
0.107951
0.128259
0.128321
0.108004
0.128259
0.150758
0.15083
0.128321
0.139408
0.150794
0.139475
0.12829
0.139441
0.128211
0.150703
0.150758
0.128259
0.139357
0.150731
0.139408
0.128235
0.139382
0.107911
0.128211
0.128259
0.107951
0.107886
0.128181
0.128211
0.107911
0.128181
0.150669
0.150703
0.128211
0.139325
0.150686
0.139357
0.128196
0.139341
0.128171
0.150658
0.150669
0.128181
0.139314
0.150663
0.139325
0.128176
0.139319
0.107877
0.128171
0.128181
0.107886
0.0737277
0.0897508
0.0897709
0.0737431
0.0897508
0.107886
0.107911
0.0897709
0.0897439
0.107877
0.107886
0.0897508
0.0737225
0.0897439
0.0897508
0.0737277
0.0289663
0.0375093
0.0375186
0.0289702
0.0375093
0.0477295
0.0477455
0.0375186
0.0375031
0.047718
0.0477295
0.0375093
0.0289644
0.0375031
0.0375093
0.0289663
0.0477295
0.0597748
0.0597989
0.0477455
0.0597748
0.073768
0.0738012
0.0597989
0.0597571
0.0737431
0.073768
0.0597748
0.047718
0.0597571
0.0597748
0.0477295
0.0477112
0.0597462
0.0597571
0.047718
0.0597462
0.0737277
0.0737431
0.0597571
0.0597425
0.0737225
0.0737277
0.0597462
0.0477089
0.0597425
0.0597462
0.0477112
0.0289637
0.0374997
0.0375031
0.0289644
0.0374997
0.0477112
0.047718
0.0375031
0.0374986
0.0477089
0.0477112
0.0374997
0.0289635
0.0374986
0.0374997
0.0289637
0.00105927
0.0022292
0.00221089
0.00110506
0.00222005
0.00460878
0.00459317
0.00221089
0.00460878
0.00785274
0.00784732
0.00459317
0.00461908
0.00785812
0.00785274
0.00460878
0.0022292
0.00461908
0.00460878
0.00222005
0.00225427
0.00463587
0.00461908
0.0022292
0.00463587
0.0078626
0.00785812
0.00461908
0.00464546
0.00786615
0.0078626
0.00463587
0.00227934
0.00464546
0.00463587
0.00225427
0.00103496
0.00227934
0.0022292
0.00105927
0.00785274
0.011603
0.0116006
0.00784732
0.011603
0.0162154
0.0162168
0.0116006
0.0116066
0.0162154
0.0162154
0.011603
0.00785812
0.0116066
0.011603
0.00785274
0.0162154
0.021942
0.0219484
0.0162168
0.021942
0.028996
0.0290083
0.0219484
0.021937
0.0289851
0.028996
0.021942
0.0162154
0.021937
0.021942
0.0162154
0.016217
0.0219339
0.021937
0.0162154
0.0219339
0.0289764
0.0289851
0.021937
0.0219328
0.0289702
0.0289764
0.0219339
0.0162196
0.0219328
0.0219339
0.016217
0.0078626
0.0116109
0.0116066
0.00785812
0.0116109
0.016217
0.0162154
0.0116066
0.0116151
0.0162196
0.016217
0.0116109
0.00786615
0.0116151
0.0116109
0.0078626
0.00786866
0.0116182
0.0116151
0.00786615
0.0116182
0.0162222
0.0162196
0.0116151
0.0116194
0.0162241
0.0162222
0.0116182
0.00787037
0.0116194
0.0116182
0.00786866
0.0162222
0.021933
0.0219328
0.0162196
0.021933
0.0289663
0.0289702
0.0219328
0.021934
0.0289644
0.0289663
0.021933
0.0162241
0.021934
0.021933
0.0162222
0.016225
0.0219349
0.021934
0.0162241
0.0219349
0.0289637
0.0289644
0.021934
0.0219353
0.0289635
0.0289637
0.0219349
0.0162253
0.0219353
0.0219349
0.016225
0.00787123
0.0116192
0.0116194
0.00787037
0.0116192
0.016225
0.0162241
0.0116194
0.0116189
0.0162253
0.016225
0.0116192
0.00787157
0.0116189
0.0116192
0.00787123
0.000926288
0.0023701
0.00227934
0.00103496
0.00232472
0.00465324
0.00464546
0.00227934
0.00465324
0.00786866
0.00786615
0.00464546
0.00465412
0.00787037
0.00786866
0.00465324
0.0023701
0.00465412
0.00465324
0.00232472
0.00237063
0.0046597
0.00465412
0.0023701
0.0046597
0.00787123
0.00787037
0.00465412
0.00465843
0.00787157
0.00787123
0.0046597
0.00237117
0.00465843
0.0046597
0.00237063
0.000898189
0.00237117
0.0023701
0.000926288
0.151663
0.176426
0.176438
0.151674
0.16392
0.176432
0.163931
0.151668
0.163925
0.176426
0.20336
0.203373
0.176438
0.189743
0.203366
0.189755
0.176432
0.189749
0.176392
0.203324
0.20336
0.176426
0.189708
0.203342
0.189743
0.176409
0.189725
0.151632
0.176392
0.176426
0.151663
0.163887
0.176409
0.16392
0.151647
0.163904
0.20336
0.232463
0.232476
0.203373
0.217733
0.232469
0.217746
0.203366
0.217739
0.232463
0.263747
0.26376
0.232476
0.247895
0.263754
0.247908
0.232469
0.247902
0.232428
0.263717
0.263747
0.232463
0.247863
0.263732
0.247895
0.232445
0.247879
0.203324
0.232428
0.232463
0.20336
0.217698
0.232445
0.217733
0.203342
0.217715
0.203276
0.232385
0.232428
0.203324
0.217652
0.232407
0.217698
0.2033
0.217675
0.232385
0.263684
0.263717
0.232428
0.247824
0.2637
0.247863
0.232407
0.247844
0.232335
0.26365
0.263684
0.232385
0.247783
0.263667
0.247824
0.23236
0.247804
0.203219
0.232335
0.232385
0.203276
0.217598
0.23236
0.217652
0.203247
0.217625
0.151586
0.176344
0.176392
0.151632
0.176344
0.203276
0.203324
0.176392
0.18966
0.2033
0.189708
0.176368
0.189684
0.176284
0.203219
0.203276
0.176344
0.189601
0.203247
0.18966
0.176314
0.189631
0.151528
0.176284
0.176344
0.151586
0.263747
0.29725
0.29726
0.26376
0.280254
0.297255
0.280265
0.263754
0.280259
0.29725
0.333034
0.333039
0.29726
0.314858
0.333037
0.314866
0.297255
0.314862
0.297228
0.333028
0.333034
0.29725
0.314844
0.333031
0.314858
0.297239
0.314851
0.263717
0.297228
0.29725
0.263747
0.280228
0.297239
0.280254
0.263732
0.280241
0.333034
0.371185
0.371183
0.333039
0.351784
0.371184
0.351786
0.333037
0.351785
0.371185
0.411834
0.411823
0.371183
0.391139
0.411828
0.391133
0.371184
0.391136
0.371199
0.411871
0.411834
0.371185
0.391164
0.411853
0.391139
0.371192
0.391152
0.333028
0.371199
0.371185
0.333034
0.351787
0.371192
0.351784
0.333031
0.351785
0.333037
0.37124
0.371199
0.333028
0.351811
0.371219
0.351787
0.333032
0.351799
0.37124
0.411943
0.411871
0.371199
0.391219
0.411907
0.391164
0.371219
0.391192
0.371323
0.412085
0.411943
0.37124
0.39133
0.412014
0.391219
0.371281
0.391275
0.333068
0.371323
0.37124
0.333037
0.351868
0.371281
0.351811
0.333052
0.351839
0.263684
0.297212
0.297228
0.263717
0.280203
0.29722
0.280228
0.2637
0.280215
0.297212
0.333037
0.333028
0.297228
0.31484
0.333032
0.314844
0.29722
0.314842
0.297205
0.333068
0.333037
0.297212
0.314852
0.333052
0.31484
0.297208
0.314846
0.26365
0.297205
0.297212
0.263684
0.280182
0.297208
0.280203
0.263667
0.280193
0.263617
0.297206
0.297205
0.26365
0.280166
0.297205
0.280182
0.263633
0.280174
0.297206
0.333121
0.333068
0.297205
0.314879
0.333095
0.314852
0.297205
0.314865
0.297211
0.333188
0.333121
0.297206
0.314914
0.333155
0.314879
0.297209
0.314896
0.26358
0.297211
0.297206
0.263617
0.28015
0.297209
0.280166
0.263598
0.280158
0.333121
0.37145
0.371323
0.333068
0.351957
0.371386
0.351868
0.333095
0.351912
0.37145
0.412317
0.412085
0.371323
0.391508
0.412201
0.39133
0.371386
0.391419
0.371606
0.412603
0.412317
0.37145
0.391727
0.41246
0.391508
0.371528
0.391617
0.333188
0.371606
0.37145
0.333121
0.352067
0.371528
0.351957
0.333155
0.352012
0.333254
0.371762
0.371606
0.333188
0.352177
0.371684
0.352067
0.333221
0.352122
0.371762
0.412883
0.412603
0.371606
0.391942
0.412743
0.391727
0.371684
0.391835
0.371891
0.413116
0.412883
0.371762
0.392123
0.413
0.391942
0.371827
0.392033
0.333304
0.371891
0.371762
0.333254
0.352265
0.371827
0.352177
0.333279
0.352221
0.263537
0.297212
0.297211
0.26358
0.280128
0.297212
0.28015
0.263558
0.280139
0.297212
0.333254
0.333188
0.297211
0.314947
0.333221
0.314914
0.297212
0.31493
0.2972
0.333304
0.333254
0.297212
0.314964
0.333279
0.314947
0.297206
0.314955
0.263482
0.2972
0.297212
0.263537
0.280094
0.297206
0.280128
0.263509
0.280111
0.151459
0.176213
0.176284
0.151528
0.176213
0.203152
0.203219
0.176284
0.176133
0.203076
0.203152
0.176213
0.151381
0.176133
0.176213
0.151459
0.203152
0.23228
0.232335
0.203219
0.23228
0.263617
0.26365
0.232335
0.232218
0.26358
0.263617
0.23228
0.203076
0.232218
0.23228
0.203152
0.202991
0.232147
0.232218
0.203076
0.232147
0.263537
0.26358
0.232218
0.232066
0.263482
0.263537
0.232147
0.202897
0.232066
0.232147
0.202991
0.151294
0.176043
0.176133
0.151381
0.176043
0.202991
0.203076
0.176133
0.175947
0.202897
0.202991
0.176043
0.151201
0.175947
0.176043
0.151294
0.411834
0.455436
0.455409
0.411823
0.433209
0.455423
0.43319
0.411828
0.4332
0.455436
0.503599
0.50354
0.455409
0.478977
0.50357
0.478935
0.455423
0.478956
0.455502
0.503739
0.503599
0.455436
0.479078
0.503669
0.478977
0.455469
0.479027
0.411871
0.455502
0.455436
0.411834
0.433259
0.455469
0.433209
0.411853
0.433234
0.503599
0.560156
0.56
0.50354
0.531047
0.560078
0.530942
0.50357
0.530995
0.560156
0.630081
0.629729
0.56
0.593679
0.629905
0.593433
0.560078
0.593556
0.611497
0.611349
0.611201
0.560529
0.631007
0.630081
0.560156
0.594305
0.630544
0.593679
0.560343
0.593992
0.612267
0.611882
0.611497
0.503739
0.560529
0.560156
0.503599
0.531296
0.560343
0.531047
0.503669
0.531171
0.503879
0.560873
0.560529
0.503739
0.531531
0.560701
0.531296
0.503809
0.531413
0.560873
0.632209
0.631007
0.560529
0.595043
0.631608
0.594305
0.560701
0.594674
0.613227
0.612747
0.612267
0.560706
0.633898
0.632209
0.560873
0.595738
0.633053
0.595043
0.560789
0.59539
0.614401
0.613814
0.613227
0.503939
0.560706
0.560873
0.503879
0.531481
0.560789
0.531531
0.503909
0.531506
0.411943
0.4556
0.455502
0.411871
0.433342
0.455551
0.433259
0.411907
0.433301
0.4556
0.503879
0.503739
0.455502
0.479195
0.503809
0.479078
0.455551
0.479136
0.455796
0.503939
0.503879
0.4556
0.479323
0.503909
0.479195
0.455698
0.479259
0.412085
0.455796
0.4556
0.411943
0.433509
0.455698
0.433342
0.412014
0.433426
0.630081
0.712549
0.712054
0.629729
0.669198
0.712301
0.66878
0.629905
0.668989
0.64915
0.648958
0.690303
0.690075
0.689848
0.648767
0.712177
0.797031
0.796318
0.712054
0.752661
0.796674
0.75227
0.712116
0.752465
0.731966
0.73184
0.774326
0.774054
0.773781
0.731715
0.797031
0.822823
0.822345
0.796318
0.79756
0.823305
0.822823
0.797031
0.712301
0.79756
0.797031
0.712177
0.752969
0.797295
0.752661
0.712239
0.752815
0.732178
0.732072
0.774739
0.774532
0.774326
0.731966
0.822823
0.826608
0.826087
0.822345
0.826608
0.82685
0.826544
0.826087
0.827106
0.827419
0.82685
0.826608
0.823305
0.827106
0.826608
0.822823
0.823721
0.827549
0.827106
0.823305
0.827549
0.827967
0.827419
0.827106
0.827938
0.828482
0.827967
0.827549
0.824072
0.827938
0.827549
0.823721
0.712425
0.798144
0.79756
0.712301
0.753301
0.797852
0.752969
0.712363
0.753135
0.732401
0.732289
0.775191
0.774965
0.774739
0.732178
0.798144
0.823721
0.823305
0.79756
0.798663
0.824072
0.823721
0.798144
0.712549
0.798663
0.798144
0.712425
0.753604
0.798404
0.753301
0.712487
0.753452
0.73261
0.732505
0.775597
0.775394
0.775191
0.732401
0.712865
0.799595
0.798663
0.712549
0.754198
0.799129
0.753604
0.712707
0.753901
0.733058
0.732834
0.776352
0.775975
0.775597
0.73261
0.799595
0.824405
0.824072
0.798663
0.800411
0.82467
0.824405
0.799595
0.71318
0.800411
0.799595
0.712865
0.754741
0.800003
0.754198
0.713022
0.75447
0.733482
0.73327
0.777025
0.776689
0.776352
0.733058
0.824405
0.828292
0.827938
0.824072
0.828292
0.828961
0.828482
0.827938
0.828577
0.829363
0.828961
0.828292
0.82467
0.828577
0.828292
0.824405
0.824812
0.828746
0.828577
0.82467
0.828746
0.829673
0.829363
0.828577
0.828814
0.829906
0.829673
0.828746
0.824923
0.828814
0.828746
0.824812
0.713496
0.80116
0.800411
0.71318
0.755252
0.800786
0.754741
0.713338
0.754996
0.733891
0.733687
0.777649
0.777337
0.777025
0.733482
0.80116
0.824812
0.82467
0.800411
0.801736
0.824923
0.824812
0.80116
0.713812
0.801736
0.80116
0.713496
0.755686
0.801448
0.755252
0.713654
0.755469
0.734263
0.734077
0.778151
0.7779
0.777649
0.733891
0.631007
0.713812
0.712549
0.630081
0.670281
0.71318
0.669198
0.630544
0.669739
0.650152
0.649651
0.691472
0.690887
0.690303
0.64915
0.82685
0.83035
0.830111
0.826544
0.83035
0.83654
0.83639
0.830111
0.830829
0.836826
0.83654
0.83035
0.827419
0.830829
0.83035
0.82685
0.83654
0.842007
0.841995
0.83639
0.842007
0.845514
0.845618
0.841995
0.842062
0.84541
0.845514
0.842007
0.836826
0.842062
0.842007
0.83654
0.837068
0.842118
0.842062
0.836826
0.842118
0.845305
0.84541
0.842062
0.842153
0.845201
0.845305
0.842118
0.83731
0.842153
0.842118
0.837068
0.827967
0.831282
0.830829
0.827419
0.831282
0.837068
0.836826
0.830829
0.831717
0.83731
0.837068
0.831282
0.828482
0.831717
0.831282
0.827967
0.845201
0.848633
0.849292
0.845618
0.84391
0.847097
0.848633
0.845201
0.828961
0.832119
0.831717
0.828482
0.832119
0.837526
0.83731
0.831717
0.832395
0.837587
0.837526
0.832119
0.829363
0.832395
0.832119
0.828961
0.837526
0.842039
0.842153
0.83731
0.842039
0.844878
0.845201
0.842153
0.84211
0.844555
0.844878
0.842039
0.837587
0.84211
0.842039
0.837526
0.837477
0.841928
0.84211
0.837587
0.841928
0.844233
0.844555
0.84211
0.841347
0.84391
0.844233
0.841928
0.837259
0.841347
0.841928
0.837477
0.829673
0.832547
0.832395
0.829363
0.832547
0.837477
0.837587
0.832395
0.832627
0.837259
0.837477
0.832547
0.829906
0.832627
0.832547
0.829673
0.830056
0.832633
0.832627
0.829906
0.832633
0.837026
0.837259
0.832627
0.832474
0.83661
0.837026
0.832633
0.830121
0.832474
0.832633
0.830056
0.837026
0.840952
0.841347
0.837259
0.840952
0.843174
0.84391
0.841347
0.840469
0.842439
0.843174
0.840952
0.83661
0.840469
0.840952
0.837026
0.835888
0.839643
0.840469
0.83661
0.839643
0.841706
0.842439
0.840469
0.838527
0.840975
0.841706
0.839643
0.834998
0.838527
0.839643