# vtk DataFile Version 2.0

ASCII

DATASET UNSTRUCTURED_GRID
POINTS 25079 float
-0.5 -0.0625 0.043573
-0.4375 -0.0625 0.0478672
-0.4375 0 0.0478722
-0.5 0 0.0435795
-0.4375 -0.0625 0.0478672
-0.375 -0.0625 0.0501034
-0.375 0 0.050092
-0.4375 0 0.0478722
-0.4375 -0.125 0.0478892
-0.375 -0.125 0.0502588
-0.375 -0.0625 0.0501034
-0.4375 -0.0625 0.0478672
-0.5 -0.125 0.0435556
-0.4375 -0.125 0.0478892
-0.4375 -0.0625 0.0478672
-0.5 -0.0625 0.043573
-0.375 -0.015625 0.0500949
-0.359375 -0.015625 0.058138
-0.359375 0 0.0581884
-0.375 0 0.050092
-0.359375 -0.015625 0.058138
-0.34375 -0.015625 0.0667667
-0.34375 0 0.0668462
-0.359375 0 0.0581884
-0.359375 -0.03125 0.05804
-0.34375 -0.03125 0.0666013
-0.34375 -0.015625 0.0667667
-0.359375 -0.015625 0.058138
-0.375 -0.03125 0.0500977
-0.359375 -0.03125 0.05804
-0.359375 -0.015625 0.058138
-0.375 -0.015625 0.0500949
-0.34375 -0.015625 0.0667667
-0.328125 -0.015625 0.0764512
-0.328125 0 0.0765024
-0.34375 0 0.0668462
-0.328125 -0.015625 0.0764512
-0.3125 -0.015625 0.0866633
-0.3125 0 0.0866839
-0.328125 0 0.0765024
-0.328125 -0.03125 0.0762822
-0.3125 -0.03125 0.086326
-0.3125 -0.015625 0.0866633
-0.328125 -0.015625 0.0764512
-0.34375 -0.03125 0.0666013
-0.328125 -0.03125 0.0762822
-0.328125 -0.015625 0.0764512
-0.34375 -0.015625 0.0667667
-0.34375 -0.046875 0.0665392
-0.328125 -0.046875 0.0759516
-0.328125 -0.03125 0.0762822
-0.34375 -0.03125 0.0666013
-0.328125 -0.046875 0.0759516
-0.3125 -0.046875 0.0851127
-0.3125 -0.03125 0.086326
-0.328125 -0.03125 0.0762822
-0.320312 -0.046875 0.0805198
-0.3125 -0.0390625 0.0857194
-0.320312 -0.03125 0.0812906
-0.328125 -0.0390625 0.0761169
-0.320312 -0.0390625 0.0809052
-0.328125 -0.0625 0.0759398
-0.3125 -0.0625 0.0848574
-0.3125 -0.046875 0.0851127
-0.328125 -0.046875 0.0759516
-0.34375 -0.0625 0.0665911
-0.328125 -0.0625 0.0759398
-0.328125 -0.046875 0.0759516
-0.34375 -0.046875 0.0665392
-0.375 -0.046875 0.0501006
-0.359375 -0.046875 0.0579849
-0.359375 -0.03125 0.05804
-0.375 -0.03125 0.0500977
-0.359375 -0.046875 0.0579849
-0.34375 -0.046875 0.0665392
-0.34375 -0.03125 0.0666013
-0.359375 -0.03125 0.05804
-0.359375 -0.0625 0.0580091
-0.34375 -0.0625 0.0665911
-0.34375 -0.046875 0.0665392
-0.359375 -0.046875 0.0579849
-0.375 -0.0625 0.0501034
-0.359375 -0.0625 0.0580091
-0.359375 -0.046875 0.0579849
-0.375 -0.046875 0.0501006
-0.3125 -0.015625 0.0866633
-0.296875 -0.015625 0.0935079
-0.296875 0 0.0935235
-0.3125 0 0.0866839
-0.296875 -0.015625 0.0935079
-0.28125 -0.015625 0.100416
-0.28125 0 0.100434
-0.296875 0 0.0935235
-0.296875 -0.03125 0.0934839
-0.28125 -0.03125 0.100687
-0.28125 -0.015625 0.100416
-0.296875 -0.015625 0.0935079
-0.3125 -0.03125 0.086326
-0.296875 -0.03125 0.0934839
-0.296875 -0.015625 0.0935079
-0.3125 -0.015625 0.0866633
-0.28125 -0.015625 0.100416
-0.265625 -0.015625 0.110925
-0.265625 0 0.110937
-0.28125 0 0.100434
-0.265625 -0.015625 0.110925
-0.25 -0.015625 0.120609
-0.25 0 0.120622
-0.265625 0 0.110937
-0.265625 -0.03125 0.110962
-0.25 -0.03125 0.120572
-0.25 -0.015625 0.120609
-0.265625 -0.015625 0.110925
-0.28125 -0.03125 0.100687
-0.265625 -0.03125 0.110962
-0.265625 -0.015625 0.110925
-0.28125 -0.015625 0.100416
-0.28125 -0.046875 0.101853
-0.265625 -0.046875 0.111197
-0.265625 -0.03125 0.110962
-0.28125 -0.03125 0.100687
-0.273438 -0.046875 0.106511
-0.265625 -0.0390625 0.111079
-0.273438 -0.03125 0.105809
-0.28125 -0.0390625 0.10127
-0.273438 -0.0390625 0.10616
-0.265625 -0.046875 0.111197
-0.25 -0.046875 0.120516
-0.25 -0.03125 0.120572
-0.265625 -0.03125 0.110962
-0.265625 -0.0625 0.111195
-0.25 -0.0625 0.120457
-0.25 -0.046875 0.120516
-0.265625 -0.046875 0.111197
-0.28125 -0.0625 0.10209
-0.265625 -0.0625 0.111195
-0.265625 -0.046875 0.111197
-0.28125 -0.046875 0.101853
-0.3125 -0.046875 0.0851127
-0.296875 -0.046875 0.0934573
-0.296875 -0.03125 0.0934839
-0.3125 -0.03125 0.086326
-0.304688 -0.046875 0.0892764
-0.296875 -0.0390625 0.0934706
-0.304688 -0.03125 0.0898975
-0.3125 -0.0390625 0.0857194
-0.304688 -0.0390625 0.0895869
-0.296875 -0.046875 0.0934573
-0.28125 -0.046875 0.101853
-0.28125 -0.03125 0.100687
-0.296875 -0.03125 0.0934839
-0.289062 -0.046875 0.097646
-0.28125 -0.0390625 0.10127
-0.289062 -0.03125 0.097078
-0.296875 -0.0390625 0.0934706
-0.289062 -0.0390625 0.097362
-0.296875 -0.0625 0.0934529
-0.28125 -0.0625 0.10209
-0.28125 -0.046875 0.101853
-0.296875 -0.046875 0.0934573
-0.3125 -0.0625 0.0848574
-0.296875 -0.0625 0.0934529
-0.296875 -0.046875 0.0934573
-0.3125 -0.046875 0.0851127
-0.3125 -0.078125 0.0849089
-0.296875 -0.078125 0.09345
-0.296875 -0.0625 0.0934529
-0.3125 -0.0625 0.0848574
-0.296875 -0.078125 0.09345
-0.28125 -0.078125 0.102044
-0.28125 -0.0625 0.10209
-0.296875 -0.0625 0.0934529
-0.296875 -0.09375 0.0934486
-0.28125 -0.09375 0.10204
-0.28125 -0.078125 0.102044
-0.296875 -0.078125 0.09345
-0.3125 -0.09375 0.0849239
-0.296875 -0.09375 0.0934486
-0.296875 -0.078125 0.09345
-0.3125 -0.078125 0.0849089
-0.28125 -0.078125 0.102044
-0.265625 -0.078125 0.111143
-0.265625 -0.0625 0.111195
-0.28125 -0.0625 0.10209
-0.265625 -0.078125 0.111143
-0.25 -0.078125 0.120427
-0.25 -0.0625 0.120457
-0.265625 -0.0625 0.111195
-0.265625 -0.09375 0.111152
-0.25 -0.09375 0.120443
-0.25 -0.078125 0.120427
-0.265625 -0.078125 0.111143
-0.28125 -0.09375 0.10204
-0.265625 -0.09375 0.111152
-0.265625 -0.078125 0.111143
-0.28125 -0.078125 0.102044
-0.28125 -0.109375 0.102062
-0.265625 -0.109375 0.111219
-0.265625 -0.09375 0.111152
-0.28125 -0.09375 0.10204
-0.265625 -0.109375 0.111219
-0.25 -0.109375 0.120509
-0.25 -0.09375 0.120443
-0.265625 -0.09375 0.111152
-0.265625 -0.125 0.111309
-0.25 -0.125 0.120621
-0.25 -0.109375 0.120509
-0.265625 -0.109375 0.111219
-0.28125 -0.125 0.102073
-0.265625 -0.125 0.111309
-0.265625 -0.109375 0.111219
-0.28125 -0.109375 0.102062
-0.3125 -0.109375 0.0849323
-0.296875 -0.109375 0.0934523
-0.296875 -0.09375 0.0934486
-0.3125 -0.09375 0.0849239
-0.296875 -0.109375 0.0934523
-0.28125 -0.109375 0.102062
-0.28125 -0.09375 0.10204
-0.296875 -0.09375 0.0934486
-0.296875 -0.125 0.0934731
-0.28125 -0.125 0.102073
-0.28125 -0.109375 0.102062
-0.296875 -0.109375 0.0934523
-0.3125 -0.125 0.0850088
-0.296875 -0.125 0.0934731
-0.296875 -0.109375 0.0934523
-0.3125 -0.109375 0.0849323
-0.375 -0.078125 0.0501423
-0.359375 -0.078125 0.0580524
-0.359375 -0.0625 0.0580091
-0.375 -0.0625 0.0501034
-0.359375 -0.078125 0.0580524
-0.34375 -0.078125 0.0666873
-0.34375 -0.0625 0.0665911
-0.359375 -0.0625 0.0580091
-0.359375 -0.09375 0.0580792
-0.34375 -0.09375 0.0666759
-0.34375 -0.078125 0.0666873
-0.359375 -0.078125 0.0580524
-0.375 -0.09375 0.0501811
-0.359375 -0.09375 0.0580792
-0.359375 -0.078125 0.0580524
-0.375 -0.078125 0.0501423
-0.34375 -0.078125 0.0666873
-0.328125 -0.078125 0.0760158
-0.328125 -0.0625 0.0759398
-0.34375 -0.0625 0.0665911
-0.328125 -0.078125 0.0760158
-0.3125 -0.078125 0.0849089
-0.3125 -0.0625 0.0848574
-0.328125 -0.0625 0.0759398
-0.328125 -0.09375 0.0760401
-0.3125 -0.09375 0.0849239
-0.3125 -0.078125 0.0849089
-0.328125 -0.078125 0.0760158
-0.34375 -0.09375 0.0666759
-0.328125 -0.09375 0.0760401
-0.328125 -0.078125 0.0760158
-0.34375 -0.078125 0.0666873
-0.34375 -0.109375 0.0666852
-0.328125 -0.109375 0.0760557
-0.328125 -0.09375 0.0760401
-0.34375 -0.09375 0.0666759
-0.328125 -0.109375 0.0760557
-0.3125 -0.109375 0.0849323
-0.3125 -0.09375 0.0849239
-0.328125 -0.09375 0.0760401
-0.328125 -0.125 0.0761544
-0.3125 -0.125 0.0850088
-0.3125 -0.109375 0.0849323
-0.328125 -0.109375 0.0760557
-0.34375 -0.125 0.0667772
-0.328125 -0.125 0.0761544
-0.328125 -0.109375 0.0760557
-0.34375 -0.109375 0.0666852
-0.375 -0.109375 0.0502199
-0.359375 -0.109375 0.0580977
-0.359375 -0.09375 0.0580792
-0.375 -0.09375 0.0501811
-0.359375 -0.109375 0.0580977
-0.34375 -0.109375 0.0666852
-0.34375 -0.09375 0.0666759
-0.359375 -0.09375 0.0580792
-0.359375 -0.125 0.0581688
-0.34375 -0.125 0.0667772
-0.34375 -0.109375 0.0666852
-0.359375 -0.109375 0.0580977
-0.375 -0.125 0.0502588
-0.359375 -0.125 0.0581688
-0.359375 -0.109375 0.0580977
-0.375 -0.109375 0.0502199
-0.375 -0.140625 0.0503013
-0.359375 -0.140625 0.0580935
-0.359375 -0.125 0.0581688
-0.375 -0.125 0.0502588
-0.359375 -0.140625 0.0580935
-0.34375 -0.140625 0.0666192
-0.34375 -0.125 0.0667772
-0.359375 -0.125 0.0581688
-0.359375 -0.15625 0.0574813
-0.34375 -0.15625 0.0653558
-0.34375 -0.140625 0.0666192
-0.359375 -0.140625 0.0580935
-0.375 -0.15625 0.0503437
-0.359375 -0.15625 0.0574813
-0.359375 -0.140625 0.0580935
-0.375 -0.140625 0.0503013
-0.34375 -0.140625 0.0666192
-0.328125 -0.140625 0.0762877
-0.328125 -0.125 0.0761544
-0.34375 -0.125 0.0667772
-0.328125 -0.140625 0.0762877
-0.3125 -0.140625 0.0852048
-0.3125 -0.125 0.0850088
-0.328125 -0.125 0.0761544
-0.328125 -0.15625 0.0762026
-0.3125 -0.15625 0.0854466
-0.3125 -0.140625 0.0852048
-0.328125 -0.140625 0.0762877
-0.34375 -0.15625 0.0653558
-0.328125 -0.15625 0.0762026
-0.328125 -0.140625 0.0762877
-0.34375 -0.140625 0.0666192
-0.335938 -0.15625 0.0707542
-0.328125 -0.148438 0.0762452
-0.335938 -0.140625 0.0714323
-0.34375 -0.148438 0.0659874
-0.335938 -0.148438 0.0710932
-0.34375 -0.171875 0.0650581
-0.328125 -0.171875 0.0762315
-0.328125 -0.15625 0.0762026
-0.34375 -0.15625 0.0653558
-0.328125 -0.171875 0.0762315
-0.3125 -0.171875 0.0855746
-0.3125 -0.15625 0.0854466
-0.328125 -0.15625 0.0762026
-0.328125 -0.1875 0.0763116
-0.3125 -0.1875 0.0855839
-0.3125 -0.171875 0.0855746
-0.328125 -0.171875 0.0762315
-0.34375 -0.1875 0.0654139
-0.328125 -0.1875 0.0763116
-0.328125 -0.171875 0.0762315
-0.34375 -0.171875 0.0650581
-0.375 -0.171875 0.0503862
-0.359375 -0.171875 0.0573637
-0.359375 -0.15625 0.0574813
-0.375 -0.15625 0.0503437
-0.359375 -0.171875 0.0573637
-0.34375 -0.171875 0.0650581
-0.34375 -0.15625 0.0653558
-0.359375 -0.15625 0.0574813
-0.359375 -0.1875 0.0575801
-0.34375 -0.1875 0.0654139
-0.34375 -0.171875 0.0650581
-0.359375 -0.171875 0.0573637
-0.375 -0.1875 0.0504287
-0.359375 -0.1875 0.0575801
-0.359375 -0.171875 0.0573637
[...]
POINT_DATA 25079
SCALARS "velocity_x" float 1
LOOKUP_TABLE default
0.043573
0.0478672
0.0478722
0.0435795
0.0478672
0.0501034
0.050092
0.0478722
0.0478892
0.0502588
0.0501034
0.0478672
0.0435556
0.0478892
0.0478672
0.043573
0.0500949
0.058138
0.0581884
0.050092
0.058138
0.0667667
0.0668462
0.0581884
0.05804
0.0666013
0.0667667
0.058138
0.0500977
0.05804
0.058138
0.0500949
0.0667667
0.0764512
0.0765024
0.0668462
0.0764512
0.0866633
0.0866839
0.0765024
0.0762822
0.086326
0.0866633
0.0764512
0.0666013
0.0762822
0.0764512
0.0667667
0.0665392
0.0759516
0.0762822
0.0666013
0.0759516
0.0851127
0.086326
0.0762822
0.0805198
0.0857194
0.0812906
0.0761169
0.0809052
0.0759398
0.0848574
0.0851127
0.0759516
0.0665911
0.0759398
0.0759516
0.0665392
0.0501006
0.0579849
0.05804
0.0500977
0.0579849
0.0665392
0.0666013
0.05804
0.0580091
0.0665911
0.0665392
0.0579849
0.0501034
0.0580091
0.0579849
0.0501006
0.0866633
0.0935079
0.0935235
0.0866839
0.0935079
0.100416
0.100434
0.0935235
0.0934839
0.100687
0.100416
0.0935079
0.086326
0.0934839
0.0935079
0.0866633
0.100416
0.110925
0.110937
0.100434
0.110925
0.120609
0.120622
0.110937
0.110962
0.120572
0.120609
0.110925
0.100687
0.110962
0.110925
0.100416
0.101853
0.111197
0.110962
0.100687
0.106511
0.111079
0.105809
0.10127
0.10616
0.111197
0.120516
0.120572
0.110962
0.111195
0.120457
0.120516
0.111197
0.10209
0.111195
0.111197
0.101853
0.0851127
0.0934573
0.0934839
0.086326
0.0892764
0.0934706
0.0898975
0.0857194
0.0895869
0.0934573
0.101853
0.100687
0.0934839
0.097646
0.10127
0.097078
0.0934706
0.097362
0.0934529
0.10209
0.101853
0.0934573
0.0848574
0.0934529
0.0934573
0.0851127
0.0849089
0.09345
0.0934529
0.0848574
0.09345
0.102044
0.10209
0.0934529
0.0934486
0.10204
0.102044
0.09345
0.0849239
0.0934486
0.09345
0.0849089
0.102044
0.111143
0.111195
0.10209
0.111143
0.120427
0.120457
0.111195
0.111152
0.120443
0.120427
0.111143
0.10204
0.111152
0.111143
0.102044
0.102062
0.111219
0.111152
0.10204
0.111219
0.120509
0.120443
0.111152
0.111309
0.120621
0.120509
0.111219
0.102073
0.111309
0.111219
0.102062
0.0849323
0.0934523
0.0934486
0.0849239
0.0934523
0.102062
0.10204
0.0934486
0.0934731
0.102073
0.102062
0.0934523
0.0850088
0.0934731
0.0934523
0.0849323
0.0501423
0.0580524
0.0580091
0.0501034
0.0580524
0.0666873
0.0665911
0.0580091
0.0580792
0.0666759
0.0666873
0.0580524
0.0501811
0.0580792
0.0580524
0.0501423
0.0666873
0.0760158
0.0759398
0.0665911
0.0760158
0.0849089
0.0848574
0.0759398
0.0760401
0.0849239
0.0849089
0.0760158
0.0666759
0.0760401
0.0760158
0.0666873
0.0666852
0.0760557
0.0760401
0.0666759
0.0760557
0.0849323
0.0849239
0.0760401
0.0761544
0.0850088
0.0849323
0.0760557
0.0667772
0.0761544
0.0760557
0.0666852
0.0502199
0.0580977
0.0580792
0.0501811
0.0580977
0.0666852
0.0666759
0.0580792
0.0581688
0.0667772
0.0666852
0.0580977
0.0502588
0.0581688
0.0580977
0.0502199
0.0503013
0.0580935
0.0581688
0.0502588
0.0580935
0.0666192
0.0667772
0.0581688
0.0574813
0.0653558
0.0666192
0.0580935
0.0503437
0.0574813
0.0580935
0.0503013
0.0666192
0.0762877
0.0761544
0.0667772
0.0762877
0.0852048
0.0850088
0.0761544
0.0762026
0.0854466
0.0852048
0.0762877
0.0653558
0.0762026
0.0762877
0.0666192
0.0707542
0.0762452
0.0714323
0.0659874
0.0710932
0.0650581
0.0762315
0.0762026
0.0653558
0.0762315
0.0855746
0.0854466
0.0762026
0.0763116
0.0855839
0.0855746
0.0762315
0.0654139
0.0763116
0.0762315
0.0650581
0.0503862
0.0573637
0.0574813
0.0503437
0.0573637
0.0650581
0.0653558
0.0574813
0.0575801
0.0654139
0.0650581
0.0573637
0.0504287
0.0575801
0.0573637
0.0503862
0.0852048
0.0935027
0.0934731
0.0850088
0.0935027
0.102004
0.102073
0.0934731
0.0935184
0.101849
0.102004
0.0935027
0.0854466
0.0935184
0.0935027
0.0852048
0.102004
0.111381
0.111309
0.102073
0.111381
0.120802
0.120621
0.111309
0.111412
0.121002
0.120802
0.111381
0.101849
0.111412
0.111381
0.102004
0.101721
0.111363
0.111412
0.101849
0.111363
0.121063
0.121002
0.111412
0.111208
0.120911
0.121063
0.111363
0.10164
0.111208
0.111363
0.101721
0.0855746
0.0935093
0.0935184
0.0854466
0.0935093
0.101721
0.101849
0.0935184
0.0934902
0.10164
0.101721
0.0935093
0.0855839
0.0934902
0.0935093
0.0855746
0.0855279
0.0934738
0.0934902
0.0855839
0.0934738
0.101609
0.10164
0.0934902
0.0934753
0.101693
0.101609
0.0934738
0.085421
0.0934753
0.0934738
0.0855279
0.101609
0.111025
0.111208
0.10164
0.111025
0.120656
0.120911
0.111208
0.111023
0.120557
0.120656
0.111025
0.101693
0.111023
0.111025
0.101609
0.101768
0.111161
0.111023
0.101693
0.111161
0.120666
0.120557
0.111023
0.111211
0.120819
0.120666
0.111161
0.101624
0.111211
0.111161
0.101768
0.0854042
0.0934901
0.0934753
0.085421
0.0934901
0.101768
0.101693
0.0934753
0.0935107
0.101624
0.101768
0.0934901
0.0856122
0.0935107
0.0934901
0.0854042
0.0503627
0.0582125
0.0575801
0.0504287
0.0582125
0.0667973
0.0654139
0.0575801
0.0583456
0.0671118
0.0667973
0.0582125
0.0502968
0.0583456
0.0582125
0.0503627
0.0667973
0.0765858
0.0763116
0.0654139
0.0716698
0.0764487
0.0708375
0.0661055
0.0712536
0.0765858
0.0855279
0.0855839
0.0763116
0.0765745
0.085421
0.0855279
0.0765858
0.0671118
0.0765745
0.0765858
0.0667973
0.0671056
0.0765258
0.0765745
0.0671118
0.0765258
0.0854042
0.085421
0.0765745
0.0766359
0.0856122
0.0854042
0.0765258
0.0670919
0.0766359
0.0765258
0.0671056
0.0502308
0.0583041
0.0583456
0.0502968
0.0583041
0.0671056
0.0671118
0.0583456
0.0582703
0.0670919
0.0671056
0.0583041
0.0501648
0.0582703
0.0583041
0.0502308
0.0435356
0.047909
0.0478892
0.0435556
0.047909
0.0504287
0.0502588
0.0478892
0.0478324
0.0501648
0.0504287
0.047909
0.043525
0.0478324
0.047909
0.0435356
0.120609
0.130107
0.130121
0.120622
0.130107
0.13988
0.139898
0.130121
0.130071
0.139836
0.13988
0.130107
0.120572
0.130071
0.130107
0.120609
0.13988
0.149908
0.149927
0.139898
0.149908
0.15991
0.15993
0.149927
0.149859
0.159873
0.15991
0.149908
0.139836
0.149859
0.149908
0.13988
0.139787
0.149806
0.149859
0.139836
0.149806
0.159848
0.159873
0.149859
0.149806
0.159876
0.159848
0.149806
0.139761
0.149806
0.149806
0.139787
0.120516
0.130025
0.130071
0.120572
0.130025
0.139787
0.139836
0.130071
0.129986
0.139761
0.139787
0.130025
0.120457
0.129986
0.130025
0.120516
0.15991
0.170119
0.170125
0.15993
0.170119
0.180805
0.180798
0.170125
0.17012
0.180845
0.180805
0.170119
0.159873
0.17012
0.170119
0.15991
0.180805
0.193084
0.193059
0.180798
0.193084
0.20585
0.205828
0.193059
0.193149
0.205911
0.20585
0.193084
0.180845
0.193149
0.193084
0.180805
0.180899
0.193216
0.193149
0.180845
0.193216
0.205984
0.205911
0.193149
0.193229
0.206025
0.205984
0.193216
0.180894
0.193229
0.193216
0.180899
0.159848
0.170119
0.17012
0.159873
0.170119
0.180899
0.180845
0.17012
0.170131
0.180894
0.180899
0.170119
0.159876
0.170131
0.170119
0.159848
0.160008
0.170124
0.170131
0.159876
0.170124
0.180779
0.180894
0.170131
0.170154
0.18058
0.180779
0.170124
0.160172
0.170154
0.170124
0.160008
0.180779
0.193132
0.193229
0.180894
0.193132
0.205994
0.206025
0.193229
0.19297
0.205915
0.205994
0.193132
0.18058
0.19297
0.193132
0.180779
0.180501
0.192894
0.19297
0.18058
0.192894
0.205876
0.205915
0.19297
0.192995
0.205931
0.205876
0.192894
0.18061
0.192995
0.192894
0.180501
0.160221
0.170149
0.170154
0.160172
0.170149
0.180501
0.18058
0.170154
0.170143
0.18061
0.180501
0.170149
0.160071
0.170143
0.170149
0.160221
0.120427
0.129966
0.129986
0.120457
0.129966
0.139785
0.139761
0.129986
0.129977
0.139815
0.139785
0.129966
0.120443
0.129977
0.129966
0.120427
0.139785
0.149907
0.149806
0.139761
0.149907
0.160008
0.159876
0.149806
0.150046
0.160172
0.160008
0.149907
0.139815
0.150046
0.149907
0.139785
0.139773
0.150049
0.150046
0.139815
0.150049
0.160221
0.160172
0.150046
0.149836
0.160071
0.160221
0.150049
0.139603
0.149836
0.150049
0.139773
0.120509
0.129978
0.129977
0.120443
0.129978
0.139773
0.139815
0.129977
0.12997
0.139603
0.139773
0.129978
0.120621
0.12997
0.129978
0.120509
0.205839
0.219173
0.219169
0.205828
0.219173
0.237587
0.237582
0.219169
0.219185
0.237591
0.237587
0.219173
0.20585
0.219185
0.219173
0.205839
0.237591
0.269521
0.269514
0.237582
0.253103
0.269518
0.253096
0.237587
0.253099
0.237612
0.269518
0.269521
0.237591
0.253113
0.26952
0.253103
0.237602
0.253108
0.20588
0.219205
0.219185
0.20585
0.219205
0.237602
0.237591
0.219185
0.21923
0.237612
0.237602
0.219205
0.205911
0.21923
0.219205
0.20588
0.269521
0.308583
0.30857
0.269514
0.288274
0.308576
0.288265
0.269518
0.28827
0.278715
0.278711
0.298222
0.298217
0.298211
0.278707
0.308576
0.339474
0.33946
0.30857
0.323669
0.339467
0.323659
0.308573
0.323664
0.339474
0.366693
0.366693
0.33946
0.352744
0.366693
0.352736
0.339467
0.35274
0.339471
0.366698
0.366693
0.339474
0.352744
0.366695
0.352744
0.339473
0.352744
0.308583
0.339471
0.339474
0.308576
0.323671
0.339473
0.323669
0.30858
0.32367
0.308577
0.339468
0.339471
0.308583
0.323667
0.33947
0.323671
0.30858
0.323669
0.339468
0.366684
0.366698
0.339471
0.352736
0.366691
0.352744
0.33947
0.35274
0.339455
0.366671
0.366684
0.339468
0.352723
0.366677
0.352736
0.339461
0.35273
0.308571
0.339455
0.339468
0.308577
0.323658
0.339461
0.323667
0.308574
0.323662
0.269518
0.308571
0.308583
0.269521
0.288267
0.308577
0.288274
0.26952
0.288271
0.298213
0.298218
0.298222
0.269529
0.308578
0.308571
0.269518
0.288276
0.308574
0.288267
0.269523
0.288272
0.298221
0.298217
0.298213
0.308574
0.339467
0.339455
0.308571
0.323665
0.339461
0.323658
0.308573
0.323661
0.339467
0.366684
0.366671
0.339455
0.352736
0.366678
0.352723
0.339461
0.35273
0.339469
0.366697
0.366684
0.339467
0.352743
0.366691
0.352736
0.339468
0.352739
0.308578
0.339469
0.339467
0.308574
0.323668
0.339468
0.323665
0.308576
0.323666
0.308579
0.339478
0.339469
0.308578
0.323672
0.339473
0.323668
0.308578
0.32367
0.339478
0.366705
0.366697
0.339469
0.352751
0.366701
0.352743
0.339473
0.352747
0.339474
0.366708
0.366705
0.339478
0.352751
0.366706
0.352751
0.339476
0.352751
0.308581
0.339474
0.339478
0.308579
0.323672
0.339476
0.323672
0.30858
0.323672
0.269541
0.308581
0.308578
0.269529
0.288284
0.308579
0.288276
0.269535
0.28828
0.298226
0.298223
0.298221
0.205948
0.219259
0.21923
0.205911
0.219259
0.237626
0.237612
0.21923
0.219289
0.237641
0.237626
0.219259
0.205984
0.219289
0.219259
0.205948
0.237641
0.269529
0.269518
0.237612
0.253133
0.269523
0.253113
0.237626
0.253123
0.237669
0.269541
0.269529
0.237641
0.253153
0.269535
0.253133
0.237655
0.253143
0.206004
0.219316
0.219289
0.205984
0.219316
0.237655
0.237641
0.219289
0.219338
0.237669
0.237655
0.219316
0.206025
0.219338
0.219316
0.206004
0.366693
0.40155
0.401383
0.366693
0.383615
0.401467
0.383537
0.366693
0.383576
0.40155
0.421959
0.421942
0.401383
0.401544
0.421981
0.421959
0.40155
0.366693
0.401544
0.40155
0.366693
0.383612
0.401547
0.383615
0.366693
0.383614
0.421959
0.435214
0.43521
0.421942
0.435214
0.445967
0.445965
0.43521
0.435223
0.445972
0.445967
0.435214
0.421981
0.435223
0.435214
0.421959
0.422001
0.435234
0.435223
0.421981
0.435234
0.445978
0.445972
0.435223
0.43524
0.445981
0.445978
0.435234
0.422015
0.43524
0.435234
0.422001
0.366695
0.401597
0.401544
0.366693
0.383638
0.401571
0.383612
0.366694
0.383625
0.401597
0.422001
0.421981
0.401544
0.401587
0.422015
0.422001
0.401597
0.366698
0.401587
0.401597
0.366695
0.383635
0.401592
0.383638
0.366696
0.383637
0.445967
0.455581
0.455579
0.445965
0.455581
0.463422
0.463423
0.455579
0.455585
0.463425
0.463422
0.455581
0.445972
0.455585
0.455581
0.445967
0.463422
0.468714
0.468727
0.463423
0.468714
0.471758
0.471758
0.468727
0.468713
0.471757
0.471758
0.468714
0.463425
0.468713
0.468714
0.463422
0.463428
0.468716
0.468713
0.463425
0.468716
0.471756
0.471757
0.468713
0.468721
0.471755
0.471756
0.468716
0.46343
0.468721
0.468716
0.463428
0.445978
0.455589
0.455585
0.445972
0.455589
0.463428
0.463425
0.455585
0.455591
0.46343
0.463428
0.455589
0.445981
0.455591
0.455589
0.445978
0.445979
0.45559
0.455591
0.445981
0.45559
0.463429
0.46343
0.455591
0.455584
0.463424
0.463429
0.45559
0.445972
0.455584
0.45559
0.445979
0.463429
0.468717
0.468721
0.46343
0.468717
0.471752
0.471755
0.468721
0.468712
0.471749
0.471752
0.468717
0.463424
0.468712
0.468717
0.463429
0.463417
0.468709
0.468712
0.463424
0.468709
0.471746
0.471749
0.468712
0.468708
0.471744
0.471746
0.468709
0.463411
0.468708
0.468709
0.463417
0.445961
0.455575
0.455584
0.445972
0.455575
0.463417
0.463424
0.455584
0.455568
0.463411
0.463417
0.455575
0.445951
0.455568
0.455575
0.445961
0.366691
0.4016
0.401587
0.366698
0.383637
0.401594
0.383635
0.366694
0.383636
0.4016
0.422003
0.422015
0.401587
0.401552
0.421988
0.422003
0.4016
0.366684
0.401552
0.4016
0.366691
0.383611
0.401576
0.383637
0.366687
0.383624
0.422003
0.435236
0.43524
0.422015
0.435236
0.445979
0.445981
0.43524
0.435225
0.445972
0.445979
0.435236
0.421988
0.435225
0.435236
0.422003
0.421966
0.435209
0.435225
0.421988
0.435209
0.445961
0.445972
0.435225
0.435195
0.445951
0.445961
0.435209
0.421946
0.435195
0.435209
0.421966
0.366677
0.401564
0.401552
0.366684
0.383613
0.401558
0.383611
0.366681
0.383612
0.401564
0.421966
0.421988
0.401552
0.40149
0.421946
0.421966
0.401564
0.366671
0.40149
0.401564
0.366677
0.383576
0.401527
0.383613
0.366674
0.383594
0.471755
0.473539
0.473556
0.471758
0.473552
0.476674
0.476671
0.473556
0.476674
0.477423
0.477423
0.476671
0.476674
0.477423
0.477423
0.476674
0.473547
0.476674
0.476674
0.473552
0.477423
0.477976
0.477973
0.477423
0.477976
0.478293
0.478302
0.477973
0.477978
0.47829
0.478293
0.477976
0.477423
0.477978
0.477976
0.477423
0.477423
0.477981
0.477978
0.477423
0.477981
0.478289
0.47829
0.477978
0.477985
0.478289
0.478289
0.477981
0.477424
0.477985
0.477981
0.477423
0.473543
0.476674
0.476674
0.473547
0.476674
0.477423
0.477423
0.476674
0.476674
0.477424
0.477423
0.476674
0.473539
0.476674
0.476674
0.473543
0.473533
0.476675
0.476674
0.473539
0.476675
0.477428
0.477424
0.476674
0.476676
0.477432
0.477428
0.476675
0.473528
0.476676
0.476675
0.473533
0.477428
0.477989
0.477985
0.477424
0.477989
0.478286
0.478289
0.477985
0.477993
0.478282
0.478286
0.477989
0.477432
0.477993
0.477989
0.477428
0.477438
0.477999
0.477993
0.477432
0.477999
0.478274
0.478282
0.477993
0.478003
0.478266
0.478274
0.477999
0.477445
0.478003
0.477999
0.477438
0.473522
0.476678
0.476676
0.473528
0.476678
0.477438
0.477432
0.476676
0.476679
0.477445
0.477438
0.476678
0.473516
0.476679
0.476678
0.473522
0.471744
0.473516
0.473539
0.471755
0.47174
0.473504
0.473516
0.471744
0.473513
0.476681
0.476679
0.473516
0.476681
0.47745
0.477445
0.476679
0.476682
0.477453
0.47745
0.476681
0.47351
0.476682
0.476681
0.473513
0.47745
0.478004
0.478003
0.477445
0.478004
0.478257
0.478266
0.478003
0.478002
0.478248
0.478257
0.478004
0.477453
0.478002
0.478004
0.47745
0.477452
0.477999
0.478002
0.477453
0.477999
0.478241
0.478248
0.478002
0.477994
0.478234
0.478241
0.477999
0.47745
0.477994
0.477999
0.477452
0.473507
0.476682
0.476682
0.47351
0.476682
0.477452
0.477453
0.476682
0.47668
0.47745
0.477452
0.476682
0.473504
0.47668
0.476682
0.473507
0.473504
0.476679
0.47668
0.473504
0.476679
0.477446
0.47745
0.47668
0.476676
0.477441
0.477446
0.476679
0.473503
0.476676
0.476679
0.473504
0.477446
0.477988
0.477994
0.47745
0.477988
0.478227
0.478234
0.477994
0.477981
0.478221
0.478227
0.477988
0.477441
0.477981
0.477988
0.477446
0.477437
0.477975
0.477981
0.477441
0.477975
0.478215
0.478221
0.477981
0.47797
0.478209
0.478215
0.477975
0.477433
0.47797
0.477975
0.477437
0.473503
0.476674
0.476676
0.473503
0.476674
0.477437
0.477441
0.476676
0.476671
0.477433
0.477437
0.476674
0.473502
0.476671
0.476674
0.473503
0.471741
0.473502
0.473504
0.47174
0.366678
0.401554
0.40149
0.366671
0.383609
0.401522
0.383576
0.366674
0.383592
0.401554
0.42195
0.421946
0.40149
0.401541
0.42197
0.42195
0.401554
0.366684
0.401541
0.401554
0.366678
0.383607
0.401548
0.383609
0.366681
0.383608
0.42195
0.435196
0.435195
0.421946
0.435196
0.445951
0.445951
0.435195
0.435211
0.445962
0.445951
0.435196
0.42197
0.435211
0.435196
0.42195
0.421989
0.435229
0.435211
0.42197
0.435229
0.445976
0.445962
0.435211
0.435242
0.445987
0.445976
0.435229
0.422007
0.435242
0.435229
0.421989
0.366691
0.401578
0.401541
0.366684
0.383627
0.40156
0.383607
0.366688
0.383617
0.401578
0.421989
0.42197
0.401541
0.401563
0.422007
0.421989
0.401578
0.366697
0.401563
0.401578
0.366691
0.383623
0.401571
0.383627
0.366694
0.383625
0.445951
0.455567
0.455568
0.445951
0.455567
0.46341
0.463411
0.455568
0.455575
0.463415
0.46341
0.455567
0.445962
0.455575
0.455567
0.445951
0.46341
0.468703
0.468708
0.463411
0.468703
0.471743
0.471744
0.468708
0.468704
0.471742
0.471743
0.468703
0.463415
0.468704
0.468703
0.46341
0.463423
0.46871
0.468704
0.463415
0.46871
0.471741
0.471742
0.468704
0.468719
0.47174
0.471741
0.46871
0.463432
0.468719
0.46871
0.463423
0.445976
0.455586
0.455575
0.445962
0.455586
0.463423
0.463415
0.455575
0.455596
0.463432
0.463423
0.455586
0.445987
0.455596
0.455586
0.445976
0.445994
0.455603
0.455596
0.445987
0.455603
0.463438
0.463432
0.455596
0.455611
0.463444
0.463438
0.455603
0.446003
0.455611
0.455603
0.445994
0.463438
0.468719
0.468719
0.463432
0.468719
0.47174
0.47174
0.468719
0.468721
0.47174
0.47174
0.468719
0.463444
0.468721
0.468719
0.463438
0.463448
0.468725
0.468721
0.463444
0.468725
0.47174
0.47174
0.468721
0.468728
0.471741
0.47174
0.468725
0.463447
0.468728
0.468725
0.463448
0.446012
0.455617
0.455611
0.446003
0.455617
0.463448
0.463444
0.455611
0.455616
0.463447
0.463448
0.455617
0.446013
0.455616
0.455617
0.446012
0.366701
0.40161
0.401563
0.366697
0.383648
0.401587
0.383623
0.366699
0.383635
0.40161
0.422014
0.422007
0.401563
0.401597
0.42203
0.422014
0.40161
0.366705
0.401597
0.40161
0.366701
0.383643
0.401604
0.383648
0.366703
0.383645
0.422014
0.435249
0.435242
0.422007
0.435249
0.445994
0.445987
0.435242
0.435261
0.446003
0.445994
0.435249
0.42203
0.435261
0.435249
0.422014
0.422047
0.435274
0.435261
0.42203
0.435274
0.446012
0.446003
0.435261
0.435274
0.446013
0.446012
0.435274
0.422042
0.435274
0.435274
0.422047
0.366706
0.40165
0.401597
0.366705
0.383669
0.401624
0.383643
0.366706
0.383656
0.40165
0.422047
0.42203
0.401597
0.40159
0.422042
0.422047
0.40165
0.366708
0.40159
0.40165
0.366706
0.383642
0.40162
0.383669
0.366707
0.383655
0.366698
0.401603
0.40159
0.366708
0.383643
0.401596
0.383642
0.366703
0.383642
0.401603
0.422017
0.422042
0.40159
0.401556
0.421993
0.422017
0.401603
0.366689
0.401556
0.401603
0.366698
0.383616
0.40158
0.383643
0.366693
0.383629
0.422017
0.435258
0.435274
0.422042
0.435258
0.446002
0.446013
0.435274
0.435236
0.445985
0.446002
0.435258
0.421993
0.435236
0.435258
0.422017
0.421971
0.435217
0.435236
0.421993
0.435217
0.445969
0.445985
0.435236
0.435207
0.445959
0.445969
0.435217
0.421957
0.435207
0.435217
0.421971
0.366678
0.401567
0.401556
0.366689
0.383616
0.401562
0.383616
0.366683
0.383616
0.401567
0.421971
0.421993
0.401556
0.401494
0.421957
0.421971
0.401567
0.366668
0.401494
0.401567
0.366678
0.383576
0.401531
0.383616
0.366673
0.383596
0.446002
0.455608
0.455616
0.446013
0.455608
0.46344
0.463447
0.455616
0.455594
0.463429
0.46344
0.455608
0.445985
0.455594
0.455608
0.446002
0.46344
0.468719
0.468728
0.463447
0.468719
0.47174
0.471741
0.468728
0.468711
0.471738
0.47174
0.468719
0.463429
0.468711
0.468719
0.46344
0.463418
0.468706
0.468711
0.463429
0.468706
0.471737
0.471738
0.468711
0.468705
0.471736
0.471737
0.468706
0.463411
0.468705
0.468706
0.463418
0.445969
0.455581
0.455594
0.445985
0.455581
0.463418
0.463429
0.455594
0.455572
0.463411
0.463418
0.455581
0.445959
0.455572
0.455581
0.445969
0.445956
0.455569
0.455572
0.445959
0.455569
0.463408
0.463411
0.455572
0.45557
0.46341
0.463408
0.455569
0.445958
0.45557
0.455569
0.445956
0.463408
0.4687
0.468705
0.463411
0.4687
0.471737
0.471736
0.468705
0.4687
0.471737
0.471737
0.4687
0.46341
0.4687
0.4687
0.463408
0.463415
0.468705
0.4687
0.46341
0.468705
0.471738
0.471737
0.4687
0.468714
0.471739
0.471738
0.468705
0.463424
0.468714
0.468705
0.463415
0.445964
0.455576
0.45557
0.445958
0.455576
0.463415
0.46341
0.45557
0.455586
0.463424