# vtk DataFile Version 2.0

ASCII

DATASET UNSTRUCTURED_GRID
POINTS 47732 float
-0.5 -0.0625 -1.91964e-06
-0.4375 -0.0625 -1.87725e-06
-0.4375 0 -2.00262e-06
-0.5 0 -2.0364e-06
-0.4375 -0.0625 -1.87725e-06
-0.375 -0.0625 -1.92046e-06
-0.375 0 -2.03192e-06
-0.4375 0 -2.00262e-06
-0.40625 -0.0625 -1.89886e-06
-0.375 -0.03125 -1.97619e-06
-0.40625 0 -2.01727e-06
-0.4375 -0.03125 -1.93993e-06
-0.40625 -0.03125 -1.95806e-06
-0.4375 -0.125 -1.54365e-06
-0.375 -0.125 -1.57045e-06
-0.375 -0.0625 -1.92046e-06
-0.4375 -0.0625 -1.87725e-06
-0.40625 -0.125 -1.55705e-06
-0.375 -0.09375 -1.74546e-06
-0.40625 -0.0625 -1.89886e-06
-0.4375 -0.09375 -1.71045e-06
-0.40625 -0.09375 -1.72796e-06
-0.5 -0.125 -1.60342e-06
-0.4375 -0.125 -1.54365e-06
-0.4375 -0.0625 -1.87725e-06
-0.5 -0.0625 -1.91964e-06
-0.46875 -0.125 -1.57352e-06
-0.4375 -0.09375 -1.71045e-06
-0.46875 -0.0625 -1.89843e-06
-0.5 -0.09375 -1.76153e-06
-0.46875 -0.09375 -1.73598e-06
-0.375 -0.015625 -2.00406e-06
-0.359375 -0.015625 -9.11922e-07
-0.359375 0 -1.03872e-07
-0.375 0 -2.03192e-06
-0.367188 -0.015625 -1.45801e-06
-0.359375 -0.0078125 -5.07897e-07
-0.367188 0 -1.06794e-06
-0.375 -0.0078125 -2.01799e-06
-0.367188 -0.0078125 -1.26297e-06
-0.371094 -0.015625 -1.73104e-06
-0.371094 -0.0078125 -1.64049e-06
-0.373047 -0.015625 -1.86755e-06
-0.373047 -0.0078125 -1.82924e-06
-0.374023 -0.015625 -1.9358e-06
-0.374023 -0.0078125 -1.92362e-06
-0.374512 -0.015625 -1.96993e-06
-0.374512 -0.0078125 -1.9708e-06
-0.374756 -0.015625 -1.98699e-06
-0.374756 -0.0078125 -1.9944e-06
-0.374268 -0.015625 -1.95287e-06
-0.374268 -0.0078125 -1.94721e-06
-0.373535 -0.015625 -1.90168e-06
-0.373535 -0.0078125 -1.87643e-06
-0.373779 -0.015625 -1.91874e-06
-0.373779 -0.0078125 -1.90002e-06
-0.373291 -0.015625 -1.88461e-06
-0.373291 -0.0078125 -1.85283e-06
-0.37207 -0.015625 -1.7993e-06
-0.37207 -0.0078125 -1.73487e-06
-0.372559 -0.015625 -1.83342e-06
-0.372559 -0.0078125 -1.78205e-06
-0.372803 -0.015625 -1.85049e-06
-0.372803 -0.0078125 -1.80565e-06
-0.372314 -0.015625 -1.81636e-06
-0.372314 -0.0078125 -1.75846e-06
-0.371582 -0.015625 -1.76517e-06
-0.371582 -0.0078125 -1.68768e-06
-0.371826 -0.015625 -1.78223e-06
-0.371826 -0.0078125 -1.71127e-06
-0.371338 -0.015625 -1.7481e-06
-0.371338 -0.0078125 -1.66408e-06
-0.369141 -0.015625 -1.59453e-06
-0.369141 -0.0078125 -1.45173e-06
-0.370117 -0.015625 -1.66278e-06
-0.370117 -0.0078125 -1.54611e-06
-0.370605 -0.015625 -1.69691e-06
-0.370605 -0.0078125 -1.5933e-06
-0.37085 -0.015625 -1.71398e-06
-0.37085 -0.0078125 -1.6169e-06
-0.370361 -0.015625 -1.67985e-06
-0.370361 -0.0078125 -1.56971e-06
-0.369629 -0.015625 -1.62866e-06
-0.369629 -0.0078125 -1.49892e-06
-0.369873 -0.015625 -1.64572e-06
-0.369629 -0.0117188 -1.56379e-06
-0.369873 -0.0078125 -1.52252e-06
-0.370117 -0.0117188 -1.60445e-06
-0.369873 -0.0117188 -1.58412e-06
-0.369385 -0.015625 -1.61159e-06
-0.369141 -0.0117188 -1.52313e-06
-0.369385 -0.0078125 -1.47533e-06
-0.369385 -0.0117188 -1.54346e-06
-0.368164 -0.015625 -1.52627e-06
-0.368164 -0.0078125 -1.35735e-06
-0.368652 -0.015625 -1.5604e-06
-0.368652 -0.0078125 -1.40454e-06
-0.368896 -0.015625 -1.57746e-06
-0.368652 -0.0117188 -1.48247e-06
-0.368896 -0.0078125 -1.42814e-06
-0.368896 -0.0117188 -1.5028e-06
-0.368408 -0.015625 -1.54333e-06
-0.368164 -0.0117188 -1.44181e-06
-0.368408 -0.0078125 -1.38095e-06
-0.368408 -0.0117188 -1.46214e-06
-0.367676 -0.015625 -1.49214e-06
-0.367676 -0.0078125 -1.31016e-06
-0.36792 -0.015625 -1.50921e-06
-0.367676 -0.0117188 -1.40115e-06
-0.36792 -0.0078125 -1.33376e-06
-0.36792 -0.0117188 -1.42148e-06
-0.367432 -0.015625 -1.47508e-06
-0.367188 -0.0117188 -1.36049e-06
-0.367432 -0.0078125 -1.28657e-06
-0.367432 -0.0117188 -1.38082e-06
-0.363281 -0.015625 -1.18497e-06
-0.363281 -0.0078125 -8.85444e-07
-0.365234 -0.015625 -1.32149e-06
-0.365234 -0.0078125 -1.07421e-06
-0.366211 -0.015625 -1.38975e-06
-0.366211 -0.0078125 -1.16859e-06
-0.366699 -0.015625 -1.42388e-06
-0.366699 -0.0078125 -1.21578e-06
-0.366943 -0.015625 -1.44095e-06
-0.366699 -0.0117188 -1.31983e-06
-0.366943 -0.0078125 -1.23938e-06
-0.366943 -0.0117188 -1.34016e-06
-0.366455 -0.015625 -1.40682e-06
-0.366211 -0.0117188 -1.27917e-06
-0.366455 -0.0078125 -1.19219e-06
-0.366455 -0.0117188 -1.2995e-06
-0.365723 -0.015625 -1.35562e-06
-0.365234 -0.0117188 -1.19785e-06
-0.365723 -0.0078125 -1.1214e-06
-0.365723 -0.0117188 -1.23851e-06
-0.364258 -0.015625 -1.25323e-06
-0.364258 -0.0078125 -9.79828e-07
-0.364746 -0.015625 -1.28736e-06
-0.364258 -0.0117188 -1.11653e-06
-0.364746 -0.0078125 -1.02702e-06
-0.364746 -0.0117188 -1.15719e-06
-0.36377 -0.015625 -1.2191e-06
-0.363281 -0.0117188 -1.03521e-06
-0.36377 -0.0078125 -9.32636e-07
-0.36377 -0.0117188 -1.07587e-06
-0.361328 -0.015625 -1.04845e-06
-0.361328 -0.0078125 -6.96672e-07
-0.362305 -0.015625 -1.11671e-06
-0.362305 -0.0078125 -7.91058e-07
-0.362793 -0.015625 -1.15084e-06
-0.362305 -0.0117188 -9.53885e-07
-0.362793 -0.0078125 -8.38251e-07
-0.362793 -0.0117188 -9.94547e-07
-0.361816 -0.015625 -1.08258e-06
-0.361328 -0.0117188 -8.72561e-07
-0.361816 -0.0078125 -7.43865e-07
-0.361816 -0.0117188 -9.13223e-07
-0.360352 -0.015625 -9.80186e-07
-0.360352 -0.0078125 -6.02285e-07
-0.36084 -0.015625 -1.01432e-06
-0.360352 -0.0117188 -7.91235e-07
-0.36084 -0.0078125 -6.49479e-07
-0.36084 -0.0117188 -8.31898e-07
-0.359863 -0.015625 -9.46054e-07
-0.359375 -0.0117188 -7.09909e-07
-0.359863 -0.0078125 -5.55091e-07
-0.359863 -0.0117188 -7.50572e-07
-0.363281 0 -5.85915e-07
-0.365234 0 -8.26928e-07
-0.366211 0 -9.47433e-07
-0.366699 0 -1.00769e-06
-0.366699 -0.00390625 -1.11173e-06
-0.366943 0 -1.03781e-06
-0.367188 -0.00390625 -1.16546e-06
-0.366943 -0.00390625 -1.1386e-06
-0.366211 -0.00390625 -1.05801e-06
-0.366455 0 -9.77559e-07
-0.366455 -0.00390625 -1.08487e-06
-0.365723 0 -8.87181e-07
-0.365967 -0.0078125 -1.145e-06
-0.365723 -0.00390625 -1.00429e-06
-0.365967 0 -9.17307e-07
-0.365967 -0.00390625 -1.03115e-06
-0.365479 -0.0078125 -1.09781e-06
-0.365234 -0.00390625 -9.5057e-07
-0.365479 0 -8.57055e-07
-0.365479 -0.00390625 -9.77431e-07
-0.364258 0 -7.06422e-07
-0.364746 0 -7.66675e-07
-0.36499 -0.0078125 -1.05062e-06
-0.364746 -0.00390625 -8.96847e-07
-0.36499 0 -7.96802e-07
-0.36499 -0.00390625 -9.23709e-07
-0.364502 -0.0078125 -1.00342e-06
-0.364258 -0.00390625 -8.43125e-07
-0.364502 0 -7.36549e-07
-0.364502 -0.00390625 -8.69986e-07
-0.363281 -0.00390625 -7.35679e-07
-0.36377 0 -6.46169e-07
-0.36377 -0.00390625 -7.89402e-07
-0.361328 0 -3.44896e-07
-0.362305 0 -4.65406e-07
-0.362305 -0.00390625 -6.28232e-07
-0.362793 0 -5.2566e-07
-0.362793 -0.00390625 -6.81956e-07
-0.361328 -0.00390625 -5.20784e-07
-0.361816 0 -4.05151e-07
-0.361816 -0.00390625 -5.74508e-07
-0.360352 0 -2.24385e-07
-0.360352 -0.00390625 -4.13335e-07
-0.36084 0 -2.8464e-07
-0.36084 -0.00390625 -4.6706e-07
-0.359375 -0.00390625 -3.05884e-07
-0.359863 0 -1.64129e-07
-0.359863 -0.00390625 -3.5961e-07
-0.371094 0 -1.54994e-06
-0.373047 0 -1.79093e-06
-0.374023 0 -1.91143e-06
-0.374512 0 -1.97167e-06
-0.374756 0 -2.0018e-06
-0.374268 0 -1.94155e-06
-0.373535 0 -1.85118e-06
-0.373779 0 -1.8813e-06
-0.373291 0 -1.82106e-06
-0.37207 0 -1.67044e-06
-0.372559 0 -1.73068e-06
-0.372803 0 -1.76081e-06
-0.372314 0 -1.70056e-06
-0.371582 0 -1.61019e-06
-0.371826 0 -1.64031e-06
-0.371338 0 -1.58006e-06
-0.369141 0 -1.30894e-06
-0.370117 0 -1.42944e-06
-0.370605 0 -1.48969e-06
-0.37085 0 -1.51981e-06
-0.370361 0 -1.45956e-06
-0.369629 0 -1.36919e-06
-0.369873 0 -1.39932e-06
-0.369141 -0.00390625 -1.38034e-06
-0.369385 0 -1.33907e-06
-0.369629 -0.00390625 -1.43406e-06
-0.369385 -0.00390625 -1.4072e-06
-0.368164 0 -1.18844e-06
-0.368652 0 -1.24869e-06
-0.368652 -0.00390625 -1.32662e-06
-0.368896 0 -1.27882e-06
-0.368896 -0.00390625 -1.35348e-06
-0.368164 -0.00390625 -1.2729e-06
-0.368408 0 -1.21856e-06
-0.368408 -0.00390625 -1.29976e-06
-0.367676 0 -1.12819e-06
-0.367676 -0.00390625 -1.21918e-06
-0.36792 0 -1.15831e-06
-0.36792 -0.00390625 -1.24604e-06
-0.367432 0 -1.09806e-06
-0.367432 -0.00390625 -1.19232e-06
-0.359375 -0.015625 -9.11922e-07
-0.34375 -0.015625 4.06244e-06
-0.34375 0 3.23468e-06
-0.359375 0 -1.03872e-07
-0.351562 -0.015625 1.57335e-06
-0.34375 -0.0078125 3.64858e-06
-0.351562 0 1.56402e-06
-0.359375 -0.0078125 -5.07897e-07
-0.351562 -0.0078125 1.56869e-06
-0.355469 -0.015625 3.30238e-07
-0.355469 -0.0078125 5.29981e-07
-0.357422 -0.015625 -2.90961e-07
-0.357422 -0.0078125 1.09387e-08
-0.358398 -0.015625 -6.01471e-07
-0.358398 -0.0078125 -2.48505e-07
-0.358887 -0.015625 -7.56704e-07
-0.358887 -0.0078125 -3.78207e-07
-0.35791 -0.015625 -4.46224e-07
-0.35791 -0.0078125 -1.1879e-07
-0.356445 -0.015625 1.96083e-08
-0.356445 -0.0078125 2.70434e-07
-0.356934 -0.015625 -1.35684e-07
-0.356934 -0.0078125 1.4068e-07
-0.355957 -0.015625 1.74916e-07
-0.355957 -0.0078125 4.00201e-07
-0.353516 -0.015625 9.51675e-07
-0.353516 -0.0078125 1.04923e-06
-0.354492 -0.015625 6.40926e-07
-0.354492 -0.0078125 7.8958e-07
-0.35498 -0.015625 4.85575e-07
-0.35498 -0.0078125 6.59774e-07
-0.354004 -0.015625 7.96293e-07
-0.354004 -0.0078125 9.19398e-07
-0.352539 -0.015625 1.26248e-06
-0.352539 -0.0078125 1.30893e-06
-0.353027 -0.015625 1.10707e-06
-0.353027 -0.0078125 1.17907e-06
-0.352051 -0.015625 1.41791e-06
-0.352051 -0.0078125 1.4388e-06
-0.347656 -0.015625 2.81742e-06
-0.347656 -0.0078125 2.60822e-06
-0.349609 -0.015625 2.19527e-06
-0.349609 -0.0078125 2.08835e-06
-0.350586 -0.015625 1.88428e-06
-0.350586 -0.0078125 1.82849e-06
-0.351074 -0.015625 1.72881e-06
-0.351074 -0.0078125 1.69858e-06
-0.350098 -0.015625 2.03976e-06
-0.350098 -0.0078125 1.95841e-06
-0.348633 -0.015625 2.50631e-06
-0.348633 -0.0078125 2.34826e-06
-0.349121 -0.015625 2.35078e-06
-0.349121 -0.0078125 2.2183e-06
-0.348145 -0.015625 2.66186e-06
-0.347656 -0.0117188 2.71282e-06
-0.348145 -0.0078125 2.47823e-06
-0.348633 -0.0117188 2.42729e-06
-0.348145 -0.0117188 2.57005e-06
-0.345703 -0.015625 3.43981e-06
-0.345703 -0.0078125 3.1283e-06
-0.34668 -0.015625 3.12859e-06
[...]
POINT_DATA 47732
SCALARS "velocity_y" float 1
LOOKUP_TABLE default
-1.91964e-06
-1.87725e-06
-2.00262e-06
-2.0364e-06
-1.87725e-06
-1.92046e-06
-2.03192e-06
-2.00262e-06
-1.89886e-06
-1.97619e-06
-2.01727e-06
-1.93993e-06
-1.95806e-06
-1.54365e-06
-1.57045e-06
-1.92046e-06
-1.87725e-06
-1.55705e-06
-1.74546e-06
-1.89886e-06
-1.71045e-06
-1.72796e-06
-1.60342e-06
-1.54365e-06
-1.87725e-06
-1.91964e-06
-1.57352e-06
-1.71045e-06
-1.89843e-06
-1.76153e-06
-1.73598e-06
-2.00406e-06
-9.11922e-07
-1.03872e-07
-2.03192e-06
-1.45801e-06
-5.07897e-07
-1.06794e-06
-2.01799e-06
-1.26297e-06
-1.73104e-06
-1.64049e-06
-1.86755e-06
-1.82924e-06
-1.9358e-06
-1.92362e-06
-1.96993e-06
-1.9708e-06
-1.98699e-06
-1.9944e-06
-1.95287e-06
-1.94721e-06
-1.90168e-06
-1.87643e-06
-1.91874e-06
-1.90002e-06
-1.88461e-06
-1.85283e-06
-1.7993e-06
-1.73487e-06
-1.83342e-06
-1.78205e-06
-1.85049e-06
-1.80565e-06
-1.81636e-06
-1.75846e-06
-1.76517e-06
-1.68768e-06
-1.78223e-06
-1.71127e-06
-1.7481e-06
-1.66408e-06
-1.59453e-06
-1.45173e-06
-1.66278e-06
-1.54611e-06
-1.69691e-06
-1.5933e-06
-1.71398e-06
-1.6169e-06
-1.67985e-06
-1.56971e-06
-1.62866e-06
-1.49892e-06
-1.64572e-06
-1.56379e-06
-1.52252e-06
-1.60445e-06
-1.58412e-06
-1.61159e-06
-1.52313e-06
-1.47533e-06
-1.54346e-06
-1.52627e-06
-1.35735e-06
-1.5604e-06
-1.40454e-06
-1.57746e-06
-1.48247e-06
-1.42814e-06
-1.5028e-06
-1.54333e-06
-1.44181e-06
-1.38095e-06
-1.46214e-06
-1.49214e-06
-1.31016e-06
-1.50921e-06
-1.40115e-06
-1.33376e-06
-1.42148e-06
-1.47508e-06
-1.36049e-06
-1.28657e-06
-1.38082e-06
-1.18497e-06
-8.85444e-07
-1.32149e-06
-1.07421e-06
-1.38975e-06
-1.16859e-06
-1.42388e-06
-1.21578e-06
-1.44095e-06
-1.31983e-06
-1.23938e-06
-1.34016e-06
-1.40682e-06
-1.27917e-06
-1.19219e-06
-1.2995e-06
-1.35562e-06
-1.19785e-06
-1.1214e-06
-1.23851e-06
-1.25323e-06
-9.79828e-07
-1.28736e-06
-1.11653e-06
-1.02702e-06
-1.15719e-06
-1.2191e-06
-1.03521e-06
-9.32636e-07
-1.07587e-06
-1.04845e-06
-6.96672e-07
-1.11671e-06
-7.91058e-07
-1.15084e-06
-9.53885e-07
-8.38251e-07
-9.94547e-07
-1.08258e-06
-8.72561e-07
-7.43865e-07
-9.13223e-07
-9.80186e-07
-6.02285e-07
-1.01432e-06
-7.91235e-07
-6.49479e-07
-8.31898e-07
-9.46054e-07
-7.09909e-07
-5.55091e-07
-7.50572e-07
-5.85915e-07
-8.26928e-07
-9.47433e-07
-1.00769e-06
-1.11173e-06
-1.03781e-06
-1.16546e-06
-1.1386e-06
-1.05801e-06
-9.77559e-07
-1.08487e-06
-8.87181e-07
-1.145e-06
-1.00429e-06
-9.17307e-07
-1.03115e-06
-1.09781e-06
-9.5057e-07
-8.57055e-07
-9.77431e-07
-7.06422e-07
-7.66675e-07
-1.05062e-06
-8.96847e-07
-7.96802e-07
-9.23709e-07
-1.00342e-06
-8.43125e-07
-7.36549e-07
-8.69986e-07
-7.35679e-07
-6.46169e-07
-7.89402e-07
-3.44896e-07
-4.65406e-07
-6.28232e-07
-5.2566e-07
-6.81956e-07
-5.20784e-07
-4.05151e-07
-5.74508e-07
-2.24385e-07
-4.13335e-07
-2.8464e-07
-4.6706e-07
-3.05884e-07
-1.64129e-07
-3.5961e-07
-1.54994e-06
-1.79093e-06
-1.91143e-06
-1.97167e-06
-2.0018e-06
-1.94155e-06
-1.85118e-06
-1.8813e-06
-1.82106e-06
-1.67044e-06
-1.73068e-06
-1.76081e-06
-1.70056e-06
-1.61019e-06
-1.64031e-06
-1.58006e-06
-1.30894e-06
-1.42944e-06
-1.48969e-06
-1.51981e-06
-1.45956e-06
-1.36919e-06
-1.39932e-06
-1.38034e-06
-1.33907e-06
-1.43406e-06
-1.4072e-06
-1.18844e-06
-1.24869e-06
-1.32662e-06
-1.27882e-06
-1.35348e-06
-1.2729e-06
-1.21856e-06
-1.29976e-06
-1.12819e-06
-1.21918e-06
-1.15831e-06
-1.24604e-06
-1.09806e-06
-1.19232e-06
-9.11922e-07
4.06244e-06
3.23468e-06
-1.03872e-07
1.57335e-06
3.64858e-06
1.56402e-06
-5.07897e-07
1.56869e-06
3.30238e-07
5.29981e-07
-2.90961e-07
1.09387e-08
-6.01471e-07
-2.48505e-07
-7.56704e-07
-3.78207e-07
-4.46224e-07
-1.1879e-07
1.96083e-08
2.70434e-07
-1.35684e-07
1.4068e-07
1.74916e-07
4.00201e-07
9.51675e-07
1.04923e-06
6.40926e-07
7.8958e-07
4.85575e-07
6.59774e-07
7.96293e-07
9.19398e-07
1.26248e-06
1.30893e-06
1.10707e-06
1.17907e-06
1.41791e-06
1.4388e-06
2.81742e-06
2.60822e-06
2.19527e-06
2.08835e-06
1.88428e-06
1.82849e-06
1.72881e-06
1.69858e-06
2.03976e-06
1.95841e-06
2.50631e-06
2.34826e-06
2.35078e-06
2.2183e-06
2.66186e-06
2.71282e-06
2.47823e-06
2.42729e-06
2.57005e-06
3.43981e-06
3.1283e-06
3.12859e-06
2.86823e-06
2.973e-06
2.99841e-06
2.73822e-06
2.85561e-06
3.28419e-06
3.28406e-06
2.99826e-06
3.14123e-06
3.7511e-06
3.38842e-06
3.59545e-06
3.56976e-06
3.25835e-06
3.4269e-06
3.90676e-06
3.85552e-06
3.51849e-06
3.71263e-06
2.399e-06
1.98143e-06
1.7727e-06
1.66836e-06
1.87706e-06
2.19019e-06
2.26923e-06
2.0858e-06
2.03489e-06
2.15205e-06
2.50361e-06
2.29459e-06
2.38642e-06
2.81675e-06
2.60786e-06
2.73805e-06
2.50343e-06
2.62083e-06
2.97253e-06
2.7123e-06
2.85528e-06
3.44164e-06
3.02569e-06
3.20706e-06
7.2973e-07
3.12843e-07
1.04464e-07
2.90473e-10
2.08648e-07
5.21265e-07
4.17048e-07
6.25492e-07
1.14679e-06
9.38238e-07
8.33979e-07
1.04251e-06
1.35538e-06
1.25108e-06
1.4597e-06
-2.46169e-06
8.3808e-07
4.06244e-06
-9.11922e-07
-8.12641e-07
2.44995e-06
1.57335e-06
-1.68675e-06
3.80281e-07
-1.63737e-06
-6.53565e-07
-2.04958e-06
-1.17024e-06
-2.25565e-06
-1.6099e-06
-1.42852e-06
-2.07421e-06
-1.84207e-06
-2.35867e-06
-2.04886e-06
-1.95814e-06
-2.26794e-06
-2.1584e-06
-2.15262e-06
-1.82974e-06
-1.72599e-06
-1.9393e-06
-1.39007e-06
-1.29938e-06
-1.63529e-06
-1.51269e-06
-1.55764e-06
-1.88048e-06
-1.75789e-06
-1.84349e-06
-1.14547e-06
-9.11923e-07
-1.3777e-06
-1.94654e-06
-1.6106e-06
-1.49381e-06
-1.72017e-06
-1.74043e-06
-1.26159e-06
-7.82749e-07
-1.14481e-06
-1.04109e-06
-1.26745e-06
-1.22506e-06
-1.36724e-07
-1.43123e-06
-6.809e-07
-3.95165e-07
-9.13201e-07
-1.5343e-06
-1.02934e-06
-1.32815e-06
-9.52982e-07
-7.97054e-07
-1.17222e-06
-1.0626e-06
-4.08814e-07
-2.6595e-07
-6.54184e-07
-5.31504e-07
-5.2437e-07
-1.01886e-06
-2.16199e-07
1.21758e-07
-4.48566e-07
-1.12196e-06
-7.33718e-07
-5.64737e-07
-8.43353e-07
-9.15755e-07
-5.14424e-07
-3.32386e-07
-6.24075e-07
8.20365e-08
2.51014e-07
-1.63407e-07
-4.06901e-08
-7.4886e-09
-2.86115e-07
1.25099e-08
1.41479e-06
-4.00118e-07
7.13603e-07
8.97451e-07
2.48636e-07
-6.06392e-07
-7.57487e-08
1.6202e-08
-2.95101e-07
-1.93817e-07
3.63045e-07
4.81103e-07
1.43634e-07
1.06418e-06
1.1561e-06
5.73036e-07
8.18591e-07
6.38845e-07
3.27517e-07
4.25242e-07
1.64394e-06
1.93229e-06
1.1787e-06
2.18863e-07
8.01958e-07
9.46137e-07
5.82487e-07
6.31648e-07
1.24099e-06
1.4113e-06
1.02146e-06
2.04693e-06
2.1911e-06
1.55548e-06
1.80118e-06
1.67352e-06
1.30981e-06
2.81742e-06
2.11606e-06
2.19527e-06
9.76797e-07
1.54633e-06
1.22188e-06
1.26154e-06
6.78534e-07
9.50185e-07
1.76541e-06
1.83117e-06
1.49362e-06
2.46673e-06
2.50631e-06
1.87079e-06
2.16873e-06
1.88428e-06
1.27507e-06
1.5729e-06
3.25612e-06
3.43981e-06
2.68599e-06
2.30912e-06
2.401e-06
2.03724e-06
2.85302e-06
2.97103e-06
2.58105e-06
3.65926e-06
3.7511e-06
3.06289e-06
3.36105e-06
3.12859e-06
2.76478e-06
3.30238e-07
-2.90961e-07
-7.30593e-07
-6.01471e-07
-1.29932e-06
-1.01498e-06
-1.22175e-06
-1.15716e-06
-1.49303e-06
-1.3574e-06
-9.50415e-07
-8.72795e-07
-1.08609e-06
-5.10775e-07
-4.46224e-07
-8.08225e-07
-6.59507e-07
-7.56704e-07
-1.10562e-06
-9.56929e-07
1.96083e-08
-4.46153e-07
-1.35684e-07
-5.88379e-07
-1.61663e-07
1.74916e-07
-3.03914e-07
9.51675e-07
6.40926e-07
1.22877e-07
4.85575e-07
-1.93992e-08
4.07467e-07
7.96293e-07
2.65166e-07
1.26248e-06
6.92107e-07
4.06929e-07
5.49781e-07
1.35369e-07
2.71144e-07
8.34446e-07
5.42726e-07
1.41791e-06
9.77292e-07
1.12617e-06
1.10707e-06
6.79569e-07
8.28424e-07
-1.97619e-06
-2.46169e-06
-9.11922e-07
-2.00406e-06
-2.21891e-06
-1.68675e-06
-1.45801e-06
-1.99012e-06
-1.83845e-06
-2.09755e-06
-2.02868e-06
-1.91429e-06
-1.98316e-06
-2.00592e-06
-2.03687e-06
-1.99454e-06
-2.00653e-06
-1.98885e-06
-2.06721e-06
-2.05173e-06
-2.00023e-06
-2.0157e-06
-2.03372e-06
-2.15823e-06
-2.12379e-06
-2.0173e-06
-2.08776e-06
-1.93356e-06
-1.87637e-06
-1.9601e-06
-1.94683e-06
-1.95221e-06
-1.97117e-06
-1.93325e-06
-1.97337e-06
-1.96674e-06
-2.34029e-06
-2.07421e-06
-1.7626e-06
-2.05144e-06
-2.2796e-06
-2.19586e-06
-2.04006e-06
-2.15983e-06
-2.40099e-06
-2.26794e-06
-2.06282e-06
-2.2319e-06
-1.88048e-06
-1.90702e-06
-1.97734e-06
-1.89375e-06
-1.97923e-06
-1.97828e-06
-1.78361e-06
-1.72468e-06
-1.83481e-06
-1.80921e-06
-1.80053e-06
-1.92029e-06
-1.29932e-06
-1.18497e-06
-1.64823e-06
-1.47378e-06
-1.61819e-06
-1.56101e-06
-1.74334e-06
-1.68077e-06
-1.49303e-06
-1.38655e-06
-1.55561e-06
-1.10562e-06
-1.04845e-06
-1.32938e-06
-1.2175e-06
-1.32149e-06
-1.55312e-06
-1.44125e-06
-1.73104e-06
-1.99709e-06
-1.82266e-06
-1.90988e-06
-1.95348e-06
-1.86848e-06
-1.86627e-06
-1.93104e-06
-1.89976e-06
-1.73545e-06
-1.80591e-06
-1.59453e-06
-1.77685e-06
-1.66499e-06
-1.86755e-06
-1.9358e-06
-1.7993e-06
-1.88871e-06
-1.83278e-06
4.06244e-06
2.60155e-06
2.80602e-06
3.23468e-06
3.33523e-06
2.70379e-06
3.02129e-06
3.64858e-06
3.17826e-06
3.69964e-06
3.41394e-06
3.88124e-06
3.53139e-06
3.97189e-06
3.59002e-06
4.01718e-06
3.78096e-06
3.61931e-06
3.85552e-06
3.81825e-06
3.92658e-06
3.70632e-06
3.56071e-06
3.74365e-06
3.79049e-06
3.4727e-06
3.83588e-06
3.6316e-06
3.50205e-06
3.66897e-06
3.74508e-06
3.55679e-06
3.44333e-06
3.5942e-06
3.51763e-06
3.29623e-06
3.60869e-06
3.35512e-06
3.65418e-06
3.4819e-06
3.38454e-06
3.51936e-06
3.56317e-06
3.40693e-06
3.32568e-06
3.44443e-06
3.42648e-06
3.23728e-06
3.47207e-06
3.26676e-06
3.38087e-06
3.20778e-06
2.9692e-06
2.94155e-06
3.15242e-06
3.06003e-06
3.24387e-06
3.11918e-06
3.28956e-06
3.14873e-06
3.19816e-06
3.08962e-06
3.06086e-06
3.00082e-06
3.10665e-06
3.03044e-06
3.01504e-06
2.97119e-06
2.78558e-06
2.8228e-06
2.87744e-06
2.8822e-06
2.92333e-06
2.91188e-06
2.83152e-06
2.85251e-06
2.69361e-06
2.76332e-06
2.73961e-06
2.79307e-06
2.64759e-06
2.73356e-06
2.91389e-06
2.96765e-06
2.99448e-06
3.00789e-06
2.98107e-06
2.94078e-06
2.95422e-06
2.92734e-06
2.86002e-06
2.88697e-06
2.90043e-06
2.8735e-06
2.83304e-06
2.84653e-06
2.81953e-06
3.12821e-06
3.1815e-06
3.35645e-06
3.2081e-06
3.44164e-06
3.39907e-06
3.15487e-06
3.31379e-06
3.16819e-06
3.33513e-06
3.27108e-06
3.14155e-06
3.29244e-06
3.07481e-06
3.10153e-06
3.22832e-06
3.11487e-06
3.24971e-06
3.18552e-06
3.08817e-06
3.20693e-06
3.04806e-06
3.14267e-06
3.06144e-06
3.1641e-06
3.09978e-06
3.03468e-06
3.12123e-06
2.60155e-06
2.4799e-06
3.05908e-06
2.80602e-06
2.54089e-06
2.76949e-06
2.93221e-06
2.70379e-06
2.73655e-06
2.57126e-06
2.72015e-06
2.58641e-06
2.71196e-06
2.55609e-06
2.72834e-06
2.51044e-06
2.753e-06
2.52567e-06
2.74477e-06
2.49518e-06
2.76124e-06
2.99556e-06
2.96386e-06
3.0273e-06
2.86903e-06
2.83751e-06
2.9006e-06
1.66106e-07
9.51353e-07
2.4799e-06
2.60155e-06
5.57671e-07
1.71563e-06
2.54089e-06
1.38383e-06
1.54928e-06
3.61625e-07
1.46644e-06
2.638e-07
1.42511e-06
2.14937e-07
1.40446e-06
1.90518e-07
1.39414e-06
2.39364e-07
1.41478e-06
3.12696e-07
1.44577e-06
2.88244e-07
1.43544e-06
3.37156e-07
1.4561e-06
4.59582e-07
1.50783e-06
4.10587e-07
1.48713e-06
3.86102e-07
1.47678e-06
4.3508e-07
1.49748e-06
5.0861e-07
1.52855e-06
4.84092e-07
1.51819e-06
5.33136e-07
1.53891e-06
7.54246e-07
1.63234e-06
6.55892e-07
1.59078e-06
6.06765e-07
1.57002e-06
5.82214e-07
1.55965e-06
6.31324e-07
1.5804e-06
7.05052e-07
1.61155e-06
6.80468e-07
1.60117e-06
7.29645e-07
1.62195e-06
8.52733e-07
1.67396e-06
8.03473e-07
1.65314e-06
7.78855e-07
1.64274e-06
8.28098e-07
1.66355e-06
9.02026e-07
1.69478e-06
8.77375e-07
1.68437e-06
9.26685e-07
1.7052e-06
2.51044e-06
2.52567e-06
2.53329e-06
2.53709e-06
2.05823e-06
2.52948e-06
2.05165e-06
2.05494e-06
2.51806e-06
2.06481e-06
2.52187e-06
2.06152e-06
2.07139e-06
2.51425e-06
2.0681e-06
2.49518e-06
2.50281e-06
2.07798e-06
2.50663e-06
2.07468e-06
2.08457e-06
2.499e-06
2.08127e-06
2.48755e-06
2.09116e-06
2.49136e-06
2.08787e-06
2.09777e-06
2.48373e-06
2.09446e-06
2.57126e-06
2.58641e-06
2.59398e-06
2.59777e-06
2.5902e-06
2.57884e-06
2.58263e-06
2.57505e-06
2.55609e-06
2.56368e-06
2.56747e-06
2.55988e-06
2.54849e-06
2.55229e-06
2.54469e-06
8.3808e-07
1.66106e-07
2.60155e-06
4.06244e-06
5.03645e-07
1.38383e-06
3.33523e-06
2.44995e-06
1.9193e-06
6.71247e-07
2.18522e-06
7.5476e-07
1.42818e-06
2.31774e-06
1.64394e-06
1.53618e-06
5.87543e-07
1.21144e-06
2.05241e-06
1.31993e-06
3.35266e-07
1.65217e-06
4.19553e-07
9.93703e-07
1.78589e-06
1.10269e-06
2.50784e-07
1.51815e-06
2.9305e-07
8.8446e-07
1.5852e-06
9.39113e-07
2.0847e-07
1.45103e-06
2.9692e-06
3.15242e-06
1.85263e-06
2.46913e-06
3.24387e-06
2.62723e-06
2.54822e-06
1.71907e-06
2.31067e-06
3.06086e-06
2.38994e-06
2.78558e-06
2.15186e-06
2.87744e-06
2.23131e-06
2.69361e-06
3.69964e-06
2.94238e-06
3.88124e-06
3.25612e-06
3.09942e-06
3.51763e-06
2.78498e-06
-3.99397e-06
-2.81489e-06
1.66106e-07
8.3808e-07
-3.40714e-06
-1.32436e-06
5.03645e-07
-1.57786e-06
-1.45169e-06
-3.70123e-06
-1.51492e-06
-3.84776e-06
-1.54643e-06
-3.92091e-06
-2.69708e-06
-1.56215e-06
-2.78589e-06
-2.74151e-06
-3.95745e-06
-3.3312e-06
-2.76371e-06
-3.38992e-06
-3.36057e-06
-3.88435e-06
-3.27241e-06
-2.7193e-06
-3.30182e-06
-2.12175e-06
-1.55429e-06
-2.15182e-06
-2.13679e-06
-1.57001e-06
-2.18187e-06
-2.16685e-06
-3.77454e-06
-2.60806e-06
-1.53068e-06
-2.65259e-06
-3.81116e-06
-3.21356e-06
-2.67484e-06
-3.243e-06
-3.73789e-06
-3.15464e-06
-2.63033e-06
-3.18411e-06
-2.06148e-06
-1.5228e-06
-2.09163e-06
-2.07656e-06
-1.53856e-06
-2.10669e-06
-3.55435e-06
-1.48334e-06
-3.62783e-06
-2.51883e-06
-1.49914e-06
-2.56347e-06
-3.66454e-06
-3.09565e-06
-2.58577e-06
-3.12515e-06
-3.5911e-06
-3.03659e-06
-2.54116e-06
-3.06613e-06
-2.00108e-06
-1.49125e-06
-2.0313e-06
-2.0162e-06
-1.50703e-06
-2.0464e-06
-3.48079e-06
-2.4294e-06
-1.46753e-06
-2.47414e-06
-3.51758e-06
-2.97746e-06
-2.49649e-06
-3.00703e-06
-3.44397e-06
-2.91827e-06
-2.45178e-06
-2.94787e-06
-1.94055e-06
-1.45961e-06
-1.97083e-06
-1.95569e-06
-1.47544e-06
-1.98596e-06
-3.1117e-06
-1.38818e-06
-3.25959e-06
-1.41997e-06
-3.33341e-06
-2.33977e-06
-1.43584e-06
-2.38461e-06
-3.37028e-06
-2.85901e-06
-2.40701e-06
-2.88865e-06
-3.29651e-06
-2.79968e-06
-2.3622e-06
-2.82935e-06
-1.87987e-06
-1.42791e-06
-1.91022e-06
-1.89505e-06
-1.44377e-06
-1.92539e-06
-3.18569e-06
-2.24993e-06
-1.40408e-06
-2.29487e-06
-3.22265e-06
-2.74028e-06
-2.31733e-06
-2.76999e-06
-3.1487e-06
-2.68081e-06
-2.27241e-06
-2.71055e-06
-1.81905e-06
-1.39613e-06
-1.84948e-06
-1.83427e-06
-1.41203e-06
-1.86468e-06
-2.96346e-06
-1.35631e-06
-3.03762e-06
-2.15988e-06
-1.37225e-06
-2.20493e-06
-3.07467e-06
-2.62127e-06
-2.22743e-06
-2.65105e-06
-3.00055e-06
-2.56167e-06
-2.18241e-06
-2.59148e-06
-1.75809e-06
-1.36428e-06
-1.78859e-06
-1.77334e-06
-1.38022e-06
-1.80382e-06
-2.88922e-06
-2.06962e-06
-1.34034e-06
-2.11477e-06
-2.92635e-06
-2.502e-06
-2.13733e-06
-2.53184e-06
-2.85207e-06
-2.44225e-06
-2.0922e-06
-2.47213e-06
-1.69699e-06
-1.33236e-06
-1.72756e-06
-1.71228e-06
-1.34833e-06
-1.74283e-06
3.35266e-07
4.19553e-07
-5.00198e-07
4.61623e-07
-4.74012e-07
-4.87098e-07
-9.61467e-07
-4.80553e-07
-9.6285e-07
-9.62159e-07
-9.60082e-07
-4.93646e-07
-9.60775e-07
-4.032e-08
4.40594e-07
-1.27342e-08
-2.65231e-08
4.8264e-07
1.48197e-08
1.04671e-09
-5.26445e-07
3.77434e-07
-5.13314e-07
-9.58696e-07
-5.06754e-07
-9.5939e-07
-9.57308e-07
-5.19878e-07
-9.58003e-07
-9.55872e-08
3.56356e-07
-6.79376e-08
-8.17584e-08
3.98499e-07
-5.41248e-08
2.50784e-07
-5.52753e-07
2.9305e-07
-5.39592e-07
-9.55919e-07
-5.33017e-07
-9.56614e-07
-9.54528e-07
-5.46171e-07
-9.55224e-07
-1.50982e-07
2.71923e-07
-1.23269e-07
-1.37122e-07
3.14164e-07
-1.09424e-07
-5.79122e-07
2.0847e-07
-5.6593e-07
-9.53135e-07
-5.5934e-07
-9.53832e-07
-9.51741e-07
-5.72524e-07
-9.52439e-07
-2.06506e-07
1.87294e-07
-1.78728e-07
-1.92613e-07
2.29633e-07
-1.64851e-07
6.71247e-07
-4.2182e-07
7.5476e-07
-3.69867e-07
-3.95814e-07
-9.71115e-07
-3.82833e-07
-9.73857e-07
-9.72486e-07
-9.68366e-07
-4.08809e-07
-9.69741e-07
1.24718e-07
7.13028e-07
1.79478e-07
1.52114e-07
7.96444e-07
2.34112e-07
2.0681e-07
5.87543e-07
-4.47886e-07
-9.65611e-07
-4.34845e-07
-9.66989e-07
-4.60941e-07
-9.64231e-07
5.45618e-07
6.98323e-08
4.23418e-08
6.29419e-07
9.7291e-08
-2.81489e-06
-1.63441e-06
9.51353e-07
1.66106e-07
-2.22624e-06
-3.41506e-07
5.57671e-07
-1.32436e-06
-8.3426e-07
-2.52096e-06
-1.07964e-06
-2.66802e-06
-1.20209e-06
-2.3737e-06
-9.57034e-07
-1.93073e-06
-5.88216e-07
-2.07858e-06
-7.11321e-07
-1.78267e-06
-4.64944e-07
7.54246e-07
6.55892e-07
8.52733e-07
3.61625e-07
2.638e-07
4.59582e-07
-3.93293e-06
-2.63027e-06
-1.63441e-06
-2.81489e-06
-3.28336e-06
-2.13234e-06
-2.22624e-06
-3.37391e-06
-2.7548e-06
-3.60859e-06
-3.06477e-06
-2.95726e-06
-2.44399e-06
-1.93073e-06
-2.52096e-06
-6.20498e-06
-3.93293e-06
-2.81489e-06
-3.99397e-06
-5.07413e-06
-3.37391e-06
-3.40714e-06
-5.09943e-06
-4.24062e-06
-5.64084e-06
-4.67101e-06
-5.92323e-06
-4.88546e-06
-6.06419e-06
-4.99251e-06
-5.78212e-06
-4.77829e-06
-5.35781e-06
-4.45606e-06
-5.49941e-06
-4.56359e-06
-5.21605e-06
-4.3484e-06
-4.50484e-06
-3.80826e-06
-4.78981e-06
-4.02469e-06
-4.93205e-06
-4.13272e-06
-4.64741e-06
-3.91654e-06
-4.21921e-06
-3.59134e-06
-4.36211e-06
-3.69986e-06
-4.07616e-06
-3.48269e-06
-3.1117e-06
-3.25959e-06
-3.33341e-06
-3.18569e-06
-2.96346e-06
-3.03762e-06
-2.88922e-06
-3.70123e-06
-3.84776e-06
-4.3666e-06
-3.92091e-06
-4.54669e-06
-4.4567e-06
-3.77454e-06
-3.55435e-06
-3.62783e-06
-3.48079e-06
-1.94833e-06
-3.25617e-06
-2.46169e-06
-1.97619e-06
-2.60216e-06
-2.85892e-06
-2.21891e-06
-1.96226e-06
-2.41054e-06
-2.27522e-06
-2.18638e-06
-2.11177e-06
-2.07432e-06
-2.03005e-06
-2.01829e-06
-2.1935e-06
-2.13035e-06
-2.43869e-06
-2.29846e-06
-2.35695e-06
-2.24242e-06
-2.52042e-06
-2.50635e-06
-2.3545e-06
-2.36857e-06
-2.43746e-06
-2.92915e-06
-2.63471e-06
-2.76565e-06
-2.52262e-06
-2.6839e-06
-2.64413e-06
-2.46658e-06
-2.57524e-06
-2.8474e-06
-2.78193e-06
-2.57867e-06
-2.71303e-06
-3.09265e-06
-3.05754e-06
-2.74681e-06
-2.91973e-06
-2.34029e-06
-2.4875e-06
-2.2796e-06
-2.31472e-06
-2.40111e-06
-2.6603e-06
-2.40099e-06
-2.5739e-06
-2.09755e-06
-2.03687e-06
-2.00653e-06
-2.06721e-06
-2.15823e-06
-2.22834e-06
-2.12789e-06
-2.14196e-06
-2.18515e-06
-2.18857e-06
-2.27153e-06
-3.25617e-06
-3.99397e-06
8.3808e-07
-2.46169e-06
-3.62488e-06
-1.57786e-06
-8.12641e-07
-2.85892e-06
-2.21872e-06
-3.44047e-06
-2.5389e-06
-3.34831e-06
-2.98968e-06
-2.69893e-06
-3.05754e-06
-3.02362e-06
-3.30224e-06
-3.18596e-06
-3.04058e-06
-3.15686e-06
-3.17141e-06
-3.39439e-06
-3.21508e-06
-3.00665e-06
-3.20052e-06
-2.76429e-06
-2.61892e-06
-2.86127e-06
-2.81279e-06
-2.77893e-06
-2.95823e-06
-2.90976e-06
-3.53266e-06
-2.92179e-06
-2.37883e-06
-2.95574e-06
-3.48657e-06
-3.2442e-06
-2.97271e-06
-3.22964e-06
-3.57877e-06
-3.27333e-06
-2.93876e-06
-3.25876e-06
-2.57025e-06
-2.29878e-06
-2.66728e-06
-2.61877e-06
-2.45887e-06
-2.71579e-06
-3.80937e-06
-2.78589e-06
-1.89837e-06
-2.85386e-06
-3.71711e-06
-3.33161e-06
-2.88783e-06
-3.30247e-06
-3.67099e-06
-3.50979e-06
-3.2879e-06
-3.4491e-06
-3.47944e-06
-3.76324e-06
-3.57049e-06
-3.31704e-06
-3.54014e-06
-3.09273e-06
-2.87084e-06
-3.09515e-06
-3.09394e-06
-2.90481e-06
-3.09756e-06
-3.09635e-06
-3.90166e-06
-3.38992e-06
-2.81988e-06
-3.36076e-06
-3.85551e-06
-3.63121e-06
-3.34619e-06
-3.60085e-06
-3.94781e-06
-3.69194e-06
-3.37534e-06
-3.66157e-06
-3.0879e-06
-2.80288e-06
-3.09032e-06
-3.08911e-06
-2.83687e-06
-3.09153e-06
-2.18187e-06
-1.73813e-06
-2.37611e-06
-2.279e-06
-2.54944e-06
-2.32756e-06
-2.61498e-06
-2.58221e-06
-2.48388e-06
-2.23044e-06
-2.51666e-06
-1.87986e-06
-1.658e-06
-2.00857e-06
-1.94422e-06
-1.81826e-06
-2.13724e-06
-2.07291e-06
-2.05857e-06
-2.47319e-06
-2.68051e-06
-2.52172e-06
-2.74602e-06
-2.71327e-06
-2.42465e-06
-2.64775e-06
-1.97847e-06
-2.26588e-06
-2.20156e-06
-2.13865e-06
1.25099e-08
-9.42915e-07
-4.00118e-07
-1.51567e-06
-1.22933e-06
-1.64394e-06
-1.37251e-06
-1.86719e-06
-1.75558e-06
-1.42064e-06
-1.08613e-06
-1.5323e-06
-4.65199e-07
-1.93817e-07
-8.1472e-07
-6.39971e-07
-6.06392e-07
-1.16415e-06
-9.89448e-07
-3.69867e-07
4.25242e-07
-6.56428e-07
-1.19728e-06
-7.99681e-07
-1.30896e-06
-9.73857e-07
-5.13157e-07
-1.08557e-06
2.34112e-07
6.31648e-07
-1.15588e-07
5.92506e-08
2.18863e-07
-2.90405e-07
-1.63737e-06
-2.04958e-06
-2.37425e-06
-2.25565e-06
-2.6603e-06
-2.51729e-06
-2.81893e-06
-2.64811e-06
-2.5888e-06
-2.75961e-06
-2.70386e-06
-2.73893e-06
-2.53659e-06