# vtk DataFile Version 2.0

ASCII

DATASET UNSTRUCTURED_GRID
POINTS 54622 float
-0.5 -0.03125 6.40101e-06
-0.46875 -0.03125 7.4096e-06
-0.46875 0 8.19216e-06
-0.5 0 7.17391e-06
-0.46875 -0.015625 7.80088e-06
-0.453125 -0.015625 1.32379e-05
-0.453125 0 1.27185e-05
-0.46875 0 8.19216e-06
-0.460938 -0.015625 1.05182e-05
-0.453125 -0.0078125 1.29782e-05
-0.460938 0 1.04543e-05
-0.46875 -0.0078125 7.99652e-06
-0.460938 -0.0078125 1.04863e-05
-0.464844 -0.015625 9.15924e-06
-0.464844 -0.0078125 9.24112e-06
-0.466797 -0.015625 8.47999e-06
-0.466797 -0.0078125 8.61876e-06
-0.462891 -0.015625 9.83864e-06
-0.462891 -0.0078125 9.86363e-06
-0.457031 -0.015625 1.18777e-05
-0.457031 -0.0078125 1.17319e-05
-0.458984 -0.015625 1.11979e-05
-0.458984 -0.0078125 1.1109e-05
-0.455078 -0.015625 1.25577e-05
-0.455078 -0.0078125 1.2355e-05
-0.457031 0 1.15862e-05
-0.458984 0 1.10202e-05
-0.455078 0 1.21523e-05
-0.464844 0 9.32301e-06
-0.466797 0 8.75753e-06
-0.462891 0 9.88862e-06
-0.453125 -0.015625 1.32379e-05
-0.4375 -0.015625 2.27067e-05
-0.4375 0 2.26583e-05
-0.453125 0 1.27185e-05
-0.445312 -0.015625 1.79675e-05
-0.4375 -0.0078125 2.26825e-05
-0.445312 0 1.76834e-05
-0.453125 -0.0078125 1.29782e-05
-0.445312 -0.0078125 1.78254e-05
-0.453125 -0.03125 1.27133e-05
-0.4375 -0.03125 2.17846e-05
-0.4375 -0.015625 2.27067e-05
-0.453125 -0.015625 1.32379e-05
-0.445312 -0.03125 1.72444e-05
-0.4375 -0.0234375 2.22457e-05
-0.445312 -0.015625 1.79675e-05
-0.453125 -0.0234375 1.29756e-05
-0.445312 -0.0234375 1.7606e-05
-0.46875 -0.03125 7.4096e-06
-0.453125 -0.03125 1.27133e-05
-0.453125 -0.015625 1.32379e-05
-0.46875 -0.015625 7.80088e-06
-0.46875 -0.046875 6.07171e-06
-0.453125 -0.046875 1.08729e-05
-0.453125 -0.03125 1.27133e-05
-0.46875 -0.03125 7.4096e-06
-0.460938 -0.046875 8.47126e-06
-0.453125 -0.0390625 1.17931e-05
-0.460938 -0.03125 1.00603e-05
-0.46875 -0.0390625 6.74066e-06
-0.460938 -0.0390625 9.26578e-06
-0.453125 -0.046875 1.08729e-05
-0.4375 -0.046875 1.92942e-05
-0.4375 -0.03125 2.17846e-05
-0.453125 -0.03125 1.27133e-05
-0.445312 -0.046875 1.50793e-05
-0.4375 -0.0390625 2.05394e-05
-0.445312 -0.03125 1.72444e-05
-0.453125 -0.0390625 1.17931e-05
-0.445312 -0.0390625 1.61619e-05
-0.449219 -0.046875 1.29751e-05
-0.449219 -0.0390625 1.39764e-05
-0.441406 -0.046875 1.71857e-05
-0.441406 -0.0390625 1.83495e-05
-0.441406 -0.03125 1.95134e-05
-0.449219 -0.03125 1.49777e-05
-0.453125 -0.0625 8.26848e-06
-0.4375 -0.0625 1.54746e-05
-0.4375 -0.046875 1.92942e-05
-0.453125 -0.046875 1.08729e-05
-0.445312 -0.0625 1.18679e-05
-0.4375 -0.0546875 1.73844e-05
-0.445312 -0.046875 1.50793e-05
-0.453125 -0.0546875 9.57069e-06
-0.445312 -0.0546875 1.34736e-05
-0.449219 -0.0625 1.00673e-05
-0.449219 -0.0546875 1.15212e-05
-0.451172 -0.0625 9.16767e-06
-0.451172 -0.0546875 1.05457e-05
-0.447266 -0.0625 1.09674e-05
-0.447266 -0.0546875 1.24972e-05
-0.441406 -0.0625 1.36704e-05
-0.441406 -0.0546875 1.5428e-05
-0.443359 -0.0625 1.27689e-05
-0.443359 -0.0546875 1.44506e-05
-0.439453 -0.0625 1.45723e-05
-0.439453 -0.0546875 1.6406e-05
-0.441406 -0.046875 1.71857e-05
-0.443359 -0.046875 1.61322e-05
-0.439453 -0.046875 1.82397e-05
-0.449219 -0.046875 1.29751e-05
-0.451172 -0.046875 1.19237e-05
-0.447266 -0.046875 1.40269e-05
-0.46875 -0.0625 4.73382e-06
-0.453125 -0.0625 8.26848e-06
-0.453125 -0.046875 1.08729e-05
-0.46875 -0.046875 6.07171e-06
-0.460938 -0.0625 6.50038e-06
-0.453125 -0.0546875 9.57069e-06
-0.460938 -0.046875 8.47126e-06
-0.46875 -0.0546875 5.40276e-06
-0.460938 -0.0546875 7.48582e-06
-0.464844 -0.0625 5.6169e-06
-0.464844 -0.0546875 6.44406e-06
-0.466797 -0.0625 5.17531e-06
-0.466797 -0.0546875 5.92336e-06
-0.462891 -0.0625 6.05859e-06
-0.462891 -0.0546875 6.96488e-06
-0.457031 -0.0625 7.38424e-06
-0.457031 -0.0546875 8.52803e-06
-0.458984 -0.0625 6.94226e-06
-0.458984 -0.0546875 8.00687e-06
-0.455078 -0.0625 7.82631e-06
-0.455078 -0.0546875 9.0493e-06
-0.457031 -0.046875 9.67182e-06
-0.458984 -0.046875 9.07147e-06
-0.455078 -0.046875 1.02723e-05
-0.464844 -0.046875 7.27122e-06
-0.466797 -0.046875 6.6714e-06
-0.462891 -0.046875 7.87118e-06
-0.5 -0.0625 4.08677e-06
-0.46875 -0.0625 4.73382e-06
-0.46875 -0.03125 7.4096e-06
-0.5 -0.03125 6.40101e-06
-0.484375 -0.0625 4.41029e-06
-0.46875 -0.046875 6.07171e-06
-0.484375 -0.03125 6.90531e-06
-0.5 -0.046875 5.24389e-06
-0.484375 -0.046875 5.6578e-06
-0.4375 -0.015625 2.27067e-05
-0.421875 -0.015625 3.42931e-05
-0.421875 0 3.45073e-05
-0.4375 0 2.26583e-05
-0.429688 -0.015625 2.84933e-05
-0.421875 -0.0078125 3.44002e-05
-0.429688 0 2.8576e-05
-0.4375 -0.0078125 2.26825e-05
-0.429688 -0.0078125 2.85347e-05
-0.421875 -0.015625 3.42931e-05
-0.40625 -0.015625 4.79144e-05
-0.40625 0 4.82078e-05
-0.421875 0 3.45073e-05
-0.421875 -0.03125 3.29858e-05
-0.40625 -0.03125 4.63192e-05
-0.40625 -0.015625 4.79144e-05
-0.421875 -0.015625 3.42931e-05
-0.414062 -0.03125 3.9643e-05
-0.40625 -0.0234375 4.71168e-05
-0.414062 -0.015625 4.1094e-05
-0.421875 -0.0234375 3.36394e-05
-0.414062 -0.0234375 4.03685e-05
-0.4375 -0.03125 2.17846e-05
-0.421875 -0.03125 3.29858e-05
-0.421875 -0.015625 3.42931e-05
-0.4375 -0.015625 2.27067e-05
-0.429688 -0.03125 2.73788e-05
-0.421875 -0.0234375 3.36394e-05
-0.429688 -0.015625 2.84933e-05
-0.4375 -0.0234375 2.22457e-05
-0.429688 -0.0234375 2.79361e-05
-0.40625 -0.015625 4.79144e-05
-0.390625 -0.015625 6.41815e-05
-0.390625 0 6.45906e-05
-0.40625 0 4.82078e-05
-0.390625 -0.015625 6.41815e-05
-0.375 -0.015625 8.44919e-05
-0.375 0 8.4959e-05
-0.390625 0 6.45906e-05
-0.390625 -0.03125 6.24198e-05
-0.375 -0.03125 8.27755e-05
-0.375 -0.015625 8.44919e-05
-0.390625 -0.015625 6.41815e-05
-0.40625 -0.03125 4.63192e-05
-0.390625 -0.03125 6.24198e-05
-0.390625 -0.015625 6.41815e-05
-0.40625 -0.015625 4.79144e-05
-0.40625 -0.046875 4.25502e-05
-0.390625 -0.046875 5.86002e-05
-0.390625 -0.03125 6.24198e-05
-0.40625 -0.03125 4.63192e-05
-0.390625 -0.046875 5.86002e-05
-0.375 -0.046875 7.92486e-05
-0.375 -0.03125 8.27755e-05
-0.390625 -0.03125 6.24198e-05
-0.382812 -0.046875 6.89002e-05
-0.375 -0.0390625 8.1012e-05
-0.382812 -0.03125 7.25737e-05
-0.390625 -0.0390625 6.051e-05
-0.382812 -0.0390625 7.07369e-05
-0.390625 -0.0625 5.26854e-05
-0.375 -0.0625 7.35916e-05
-0.375 -0.046875 7.92486e-05
-0.390625 -0.046875 5.86002e-05
-0.382812 -0.0625 6.3114e-05
-0.375 -0.0546875 7.64201e-05
-0.382812 -0.046875 6.89002e-05
-0.390625 -0.0546875 5.56428e-05
-0.382812 -0.0546875 6.60071e-05
-0.40625 -0.0625 3.67498e-05
-0.390625 -0.0625 5.26854e-05
-0.390625 -0.046875 5.86002e-05
-0.40625 -0.046875 4.25502e-05
-0.4375 -0.046875 1.92942e-05
-0.421875 -0.046875 2.97649e-05
-0.421875 -0.03125 3.29858e-05
-0.4375 -0.03125 2.17846e-05
-0.429688 -0.046875 2.45236e-05
-0.421875 -0.0390625 3.13753e-05
-0.429688 -0.03125 2.73788e-05
-0.4375 -0.0390625 2.05394e-05
-0.429688 -0.0390625 2.59512e-05
-0.421875 -0.046875 2.97649e-05
-0.40625 -0.046875 4.25502e-05
-0.40625 -0.03125 4.63192e-05
-0.421875 -0.03125 3.29858e-05
-0.414062 -0.046875 3.61484e-05
-0.40625 -0.0390625 4.44347e-05
-0.414062 -0.03125 3.9643e-05
-0.421875 -0.0390625 3.13753e-05
-0.414062 -0.0390625 3.78957e-05
-0.421875 -0.0625 2.47546e-05
-0.40625 -0.0625 3.67498e-05
-0.40625 -0.046875 4.25502e-05
-0.421875 -0.046875 2.97649e-05
-0.414062 -0.0625 3.07437e-05
-0.40625 -0.0546875 3.965e-05
-0.414062 -0.046875 3.61484e-05
-0.421875 -0.0546875 2.72598e-05
-0.414062 -0.0546875 3.3446e-05
-0.4375 -0.0625 1.54746e-05
-0.421875 -0.0625 2.47546e-05
-0.421875 -0.046875 2.97649e-05
-0.4375 -0.046875 1.92942e-05
-0.429688 -0.0625 2.01094e-05
-0.421875 -0.0546875 2.72598e-05
-0.429688 -0.046875 2.45236e-05
-0.4375 -0.0546875 1.73844e-05
-0.429688 -0.0546875 2.23165e-05
-0.4375 -0.078125 1.09135e-05
-0.421875 -0.078125 1.87666e-05
-0.421875 -0.0625 2.47546e-05
-0.4375 -0.0625 1.54746e-05
-0.429688 -0.078125 1.48356e-05
-0.421875 -0.0703125 2.17606e-05
-0.429688 -0.0625 2.01094e-05
-0.4375 -0.0703125 1.31941e-05
-0.429688 -0.0703125 1.74725e-05
-0.421875 -0.078125 1.87666e-05
-0.40625 -0.078125 2.97105e-05
-0.40625 -0.0625 3.67498e-05
-0.421875 -0.0625 2.47546e-05
-0.414062 -0.078125 2.42308e-05
-0.40625 -0.0703125 3.32302e-05
-0.414062 -0.0625 3.07437e-05
-0.421875 -0.0703125 2.17606e-05
-0.414062 -0.0703125 2.74872e-05
-0.421875 -0.09375 1.24887e-05
-0.40625 -0.09375 2.21086e-05
-0.40625 -0.078125 2.97105e-05
-0.421875 -0.078125 1.87666e-05
-0.414062 -0.09375 1.72918e-05
-0.40625 -0.0859375 2.59096e-05
-0.414062 -0.078125 2.42308e-05
-0.421875 -0.0859375 1.56277e-05
-0.414062 -0.0859375 2.07613e-05
-0.4375 -0.09375 6.04846e-06
-0.421875 -0.09375 1.24887e-05
-0.421875 -0.078125 1.87666e-05
-0.4375 -0.078125 1.09135e-05
-0.429688 -0.09375 9.26492e-06
-0.421875 -0.0859375 1.56277e-05
-0.429688 -0.078125 1.48356e-05
-0.4375 -0.0859375 8.481e-06
-0.429688 -0.0859375 1.20503e-05
-0.40625 -0.078125 2.97105e-05
-0.390625 -0.078125 4.51066e-05
-0.390625 -0.0625 5.26854e-05
-0.40625 -0.0625 3.67498e-05
-0.398438 -0.078125 3.73944e-05
-0.390625 -0.0703125 4.8896e-05
-0.398438 -0.0625 4.47029e-05
-0.40625 -0.0703125 3.32302e-05
-0.398438 -0.0703125 4.10486e-05
-0.390625 -0.078125 4.51066e-05
-0.375 -0.078125 6.58284e-05
-0.375 -0.0625 7.35916e-05
-0.390625 -0.0625 5.26854e-05
-0.390625 -0.09375 3.63864e-05
-0.375 -0.09375 5.63158e-05
-0.375 -0.078125 6.58284e-05
-0.390625 -0.078125 4.51066e-05
-0.382812 -0.09375 4.63277e-05
-0.375 -0.0859375 6.10721e-05
-0.382812 -0.078125 5.54432e-05
-0.390625 -0.0859375 4.07465e-05
-0.382812 -0.0859375 5.08854e-05
-0.40625 -0.09375 2.21086e-05
-0.390625 -0.09375 3.63864e-05
-0.390625 -0.078125 4.51066e-05
-0.40625 -0.078125 2.97105e-05
-0.398438 -0.09375 2.92343e-05
-0.390625 -0.0859375 4.07465e-05
-0.398438 -0.078125 3.73944e-05
-0.40625 -0.0859375 2.59096e-05
-0.398438 -0.0859375 3.33143e-05
-0.40625 -0.109375 1.41831e-05
-0.390625 -0.109375 2.69986e-05
-0.390625 -0.09375 3.63864e-05
-0.40625 -0.09375 2.21086e-05
-0.398438 -0.109375 2.05791e-05
-0.390625 -0.101562 3.16925e-05
-0.398438 -0.09375 2.92343e-05
[...]
POINT_DATA 54622
SCALARS "velocity_y" float 1
LOOKUP_TABLE default
6.40101e-06
7.4096e-06
8.19216e-06
7.17391e-06
7.80088e-06
1.32379e-05
1.27185e-05
8.19216e-06
1.05182e-05
1.29782e-05
1.04543e-05
7.99652e-06
1.04863e-05
9.15924e-06
9.24112e-06
8.47999e-06
8.61876e-06
9.83864e-06
9.86363e-06
1.18777e-05
1.17319e-05
1.11979e-05
1.1109e-05
1.25577e-05
1.2355e-05
1.15862e-05
1.10202e-05
1.21523e-05
9.32301e-06
8.75753e-06
9.88862e-06
1.32379e-05
2.27067e-05
2.26583e-05
1.27185e-05
1.79675e-05
2.26825e-05
1.76834e-05
1.29782e-05
1.78254e-05
1.27133e-05
2.17846e-05
2.27067e-05
1.32379e-05
1.72444e-05
2.22457e-05
1.79675e-05
1.29756e-05
1.7606e-05
7.4096e-06
1.27133e-05
1.32379e-05
7.80088e-06
6.07171e-06
1.08729e-05
1.27133e-05
7.4096e-06
8.47126e-06
1.17931e-05
1.00603e-05
6.74066e-06
9.26578e-06
1.08729e-05
1.92942e-05
2.17846e-05
1.27133e-05
1.50793e-05
2.05394e-05
1.72444e-05
1.17931e-05
1.61619e-05
1.29751e-05
1.39764e-05
1.71857e-05
1.83495e-05
1.95134e-05
1.49777e-05
8.26848e-06
1.54746e-05
1.92942e-05
1.08729e-05
1.18679e-05
1.73844e-05
1.50793e-05
9.57069e-06
1.34736e-05
1.00673e-05
1.15212e-05
9.16767e-06
1.05457e-05
1.09674e-05
1.24972e-05
1.36704e-05
1.5428e-05
1.27689e-05
1.44506e-05
1.45723e-05
1.6406e-05
1.71857e-05
1.61322e-05
1.82397e-05
1.29751e-05
1.19237e-05
1.40269e-05
4.73382e-06
8.26848e-06
1.08729e-05
6.07171e-06
6.50038e-06
9.57069e-06
8.47126e-06
5.40276e-06
7.48582e-06
5.6169e-06
6.44406e-06
5.17531e-06
5.92336e-06
6.05859e-06
6.96488e-06
7.38424e-06
8.52803e-06
6.94226e-06
8.00687e-06
7.82631e-06
9.0493e-06
9.67182e-06
9.07147e-06
1.02723e-05
7.27122e-06
6.6714e-06
7.87118e-06
4.08677e-06
4.73382e-06
7.4096e-06
6.40101e-06
4.41029e-06
6.07171e-06
6.90531e-06
5.24389e-06
5.6578e-06
2.27067e-05
3.42931e-05
3.45073e-05
2.26583e-05
2.84933e-05
3.44002e-05
2.8576e-05
2.26825e-05
2.85347e-05
3.42931e-05
4.79144e-05
4.82078e-05
3.45073e-05
3.29858e-05
4.63192e-05
4.79144e-05
3.42931e-05
3.9643e-05
4.71168e-05
4.1094e-05
3.36394e-05
4.03685e-05
2.17846e-05
3.29858e-05
3.42931e-05
2.27067e-05
2.73788e-05
3.36394e-05
2.84933e-05
2.22457e-05
2.79361e-05
4.79144e-05
6.41815e-05
6.45906e-05
4.82078e-05
6.41815e-05
8.44919e-05
8.4959e-05
6.45906e-05
6.24198e-05
8.27755e-05
8.44919e-05
6.41815e-05
4.63192e-05
6.24198e-05
6.41815e-05
4.79144e-05
4.25502e-05
5.86002e-05
6.24198e-05
4.63192e-05
5.86002e-05
7.92486e-05
8.27755e-05
6.24198e-05
6.89002e-05
8.1012e-05
7.25737e-05
6.051e-05
7.07369e-05
5.26854e-05
7.35916e-05
7.92486e-05
5.86002e-05
6.3114e-05
7.64201e-05
6.89002e-05
5.56428e-05
6.60071e-05
3.67498e-05
5.26854e-05
5.86002e-05
4.25502e-05
1.92942e-05
2.97649e-05
3.29858e-05
2.17846e-05
2.45236e-05
3.13753e-05
2.73788e-05
2.05394e-05
2.59512e-05
2.97649e-05
4.25502e-05
4.63192e-05
3.29858e-05
3.61484e-05
4.44347e-05
3.9643e-05
3.13753e-05
3.78957e-05
2.47546e-05
3.67498e-05
4.25502e-05
2.97649e-05
3.07437e-05
3.965e-05
3.61484e-05
2.72598e-05
3.3446e-05
1.54746e-05
2.47546e-05
2.97649e-05
1.92942e-05
2.01094e-05
2.72598e-05
2.45236e-05
1.73844e-05
2.23165e-05
1.09135e-05
1.87666e-05
2.47546e-05
1.54746e-05
1.48356e-05
2.17606e-05
2.01094e-05
1.31941e-05
1.74725e-05
1.87666e-05
2.97105e-05
3.67498e-05
2.47546e-05
2.42308e-05
3.32302e-05
3.07437e-05
2.17606e-05
2.74872e-05
1.24887e-05
2.21086e-05
2.97105e-05
1.87666e-05
1.72918e-05
2.59096e-05
2.42308e-05
1.56277e-05
2.07613e-05
6.04846e-06
1.24887e-05
1.87666e-05
1.09135e-05
9.26492e-06
1.56277e-05
1.48356e-05
8.481e-06
1.20503e-05
2.97105e-05
4.51066e-05
5.26854e-05
3.67498e-05
3.73944e-05
4.8896e-05
4.47029e-05
3.32302e-05
4.10486e-05
4.51066e-05
6.58284e-05
7.35916e-05
5.26854e-05
3.63864e-05
5.63158e-05
6.58284e-05
4.51066e-05
4.63277e-05
6.10721e-05
5.54432e-05
4.07465e-05
5.08854e-05
2.21086e-05
3.63864e-05
4.51066e-05
2.97105e-05
2.92343e-05
4.07465e-05
3.73944e-05
2.59096e-05
3.33143e-05
1.41831e-05
2.69986e-05
3.63864e-05
2.21086e-05
2.05791e-05
3.16925e-05
2.92343e-05
1.81459e-05
2.49067e-05
2.69986e-05
4.57194e-05
5.63158e-05
3.63864e-05
3.63371e-05
5.10176e-05
4.63277e-05
3.16925e-05
4.13323e-05
1.76424e-05
3.49066e-05
4.57194e-05
2.69986e-05
2.62543e-05
4.0313e-05
3.63371e-05
2.23205e-05
3.12957e-05
6.38249e-06
1.76424e-05
2.69986e-05
1.41831e-05
1.20021e-05
2.23205e-05
2.05791e-05
1.02828e-05
1.62906e-05
1.11828e-06
6.09141e-06
1.24887e-05
6.04846e-06
3.60203e-06
9.29004e-06
9.26492e-06
3.58337e-06
6.43348e-06
6.09141e-06
1.41831e-05
2.21086e-05
1.24887e-05
1.01315e-05
1.81459e-05
1.72918e-05
9.29004e-06
1.37116e-05
-1.12579e-07
6.38249e-06
1.41831e-05
6.09141e-06
3.13032e-06
1.02828e-05
1.01315e-05
2.98941e-06
6.63091e-06
-3.56488e-06
-1.12579e-07
6.09141e-06
1.11828e-06
-1.84068e-06
2.98941e-06
3.60203e-06
-1.2233e-06
8.80676e-07
7.7949e-07
8.725e-07
4.73382e-06
4.08677e-06
8.25995e-07
2.80316e-06
4.41029e-06
2.43313e-06
2.61814e-06
2.80316e-06
5.21221e-06
8.26848e-06
4.73382e-06
4.00715e-06
6.74035e-06
6.50038e-06
3.76849e-06
5.25377e-06
5.21221e-06
1.09135e-05
1.54746e-05
8.26848e-06
8.06003e-06
1.31941e-05
1.18679e-05
6.74035e-06
9.96399e-06
1.83068e-06
6.04846e-06
1.09135e-05
5.21221e-06
3.93747e-06
8.481e-06
8.06003e-06
3.52144e-06
5.99875e-06
8.725e-07
1.83068e-06
5.21221e-06
2.80316e-06
1.35138e-06
3.52144e-06
4.00715e-06
1.83783e-06
2.67927e-06
-1.07462e-06
-1.56905e-06
1.83068e-06
8.725e-07
-1.32172e-06
1.30825e-07
1.35138e-06
-1.0106e-07
1.4831e-08
-1.56905e-06
1.11828e-06
6.04846e-06
1.83068e-06
-2.26712e-07
3.58337e-06
3.93747e-06
1.30825e-07
1.85539e-06
-4.77467e-06
-3.56488e-06
1.11828e-06
-1.56905e-06
-4.17037e-06
-1.2233e-06
-2.26712e-07
-3.17186e-06
-2.19854e-06
-3.02174e-06
-4.77467e-06
-1.56905e-06
-1.07462e-06
-3.89781e-06
-3.17186e-06
-1.32172e-06
-2.04818e-06
-2.60977e-06
-2.50563e-06
-3.02174e-06
8.725e-07
7.7949e-07
-2.76369e-06
-1.07462e-06
8.25995e-07
-8.63069e-07
-9.68844e-07
8.44919e-05
0.000110293
0.000110678
8.4959e-05
0.000110293
0.000142559
0.000142684
0.000110678
0.000126368
0.000142621
0.000126623
0.000110486
0.000126496
0.000108878
0.000141761
0.000142559
0.000110293
0.000125261
0.00014216
0.000126368
0.000109586
0.000125814
8.27755e-05
0.000108878
0.000110293
8.44919e-05
0.000142559
0.000181702
0.000181379
0.000142684
0.000181702
0.000227523
0.000226557
0.000181379
0.000181897
0.000229128
0.000227523
0.000181702
0.000205391
0.000228326
0.000204494
0.000181799
0.000204942
0.000141761
0.000181897
0.000181702
0.000142559
0.000139433
0.000180674
0.000181897
0.000141761
0.000159964
0.000181286
0.000161742
0.000140597
0.000160853
0.000180674
0.000229513
0.000229128
0.000181897
0.000204968
0.000229321
0.000205391
0.000181286
0.000205179
0.000177153
0.000227678
0.000229513
0.000180674
0.000202285
0.000228596
0.000204968
0.000178914
0.000203627
0.000134832
0.000177153
0.000180674
0.000139433
0.000155901
0.000178914
0.000159964
0.000137132
0.000157932
7.92486e-05
0.000105828
0.000108878
8.27755e-05
0.000105828
0.000139433
0.000141761
0.000108878
0.00010058
0.000134832
0.000139433
0.000105828
7.35916e-05
0.00010058
0.000105828
7.92486e-05
0.000227523
0.000279188
0.000277378
0.000226557
0.000253199
0.000278283
0.000251814
0.00022704
0.000252507
0.000279188
0.000335138
0.000332269
0.000277378
0.000306968
0.000333703
0.000304632
0.000278283
0.0003058
0.000282654
0.000340908
0.000335138
0.000279188
0.000311577
0.000338023
0.000306968
0.000280921
0.000309273
0.000229128
0.000282654
0.000279188
0.000227523
0.000255729
0.000280921
0.000253199
0.000228326
0.000254464
0.000335138
0.000392826
0.000388698
0.000332269
0.000363752
0.000390762
0.000360258
0.000333703
0.000362005
0.000392826
0.000448429
0.000442904
0.000388698
0.000420377
0.000445666
0.000415557
0.000390762
0.000417967
0.000401268
0.000459732
0.000448429
0.000392826
0.000430237
0.00045408
0.000420377
0.000397047
0.000425307
0.000340908
0.000401268
0.000392826
0.000335138
0.000370847
0.000397047
0.000363752
0.000338023
0.0003673
0.000346146
0.000409569
0.000401268
0.000340908
0.000377605
0.000405418
0.000370847
0.000343527
0.000374226
0.000409569
0.000471209
0.000459732
0.000401268
0.000440111
0.00046547
0.000430237
0.000405418
0.000435174
0.000416733
0.000482187
0.000471209
0.000409569
0.000449166
0.000476698
0.000440111
0.000413151
0.000444639
0.000349744
0.000416733
0.000409569
0.000346146
0.000382972
0.000413151
0.000377605
0.000347945
0.000380288
0.000229513
0.000285205
0.000282654
0.000229128
0.000285205
0.000346146
0.000340908
0.000282654
0.000315463
0.000343527
0.000311577
0.000283929
0.00031352
0.000285753
0.000349744
0.000346146
0.000285205
0.000317525
0.000347945
0.000315463
0.000285479
0.000316494
0.000227678
0.000285753
0.000285205
0.000229513
0.000222929
0.000283421
0.000285753
0.000227678
0.000252993
0.000284587
0.00025654
0.000225304
0.000254766
0.000283421
0.000350654
0.000349744
0.000285753
0.000316803
0.000350199
0.000317525
0.000284587
0.000317164
0.000277508
0.0003478
0.000350654
0.000283421
0.000312409
0.000349227
0.000316803
0.000280465
0.000314606
0.00021489
0.000277508
0.000283421
0.000222929
0.00024601
0.000280465
0.000252993
0.000218909
0.000249501
0.000350654
0.000421617
0.000416733
0.000349744
0.000385853
0.000419175
0.000382972
0.000350199
0.000384412
0.000421617
0.000491571
0.000482187
0.000416733
0.00045628
0.000486879
0.000449166
0.000419175
0.000452723
0.000422755
0.000497542
0.000491571
0.000421617
0.000459813
0.000494557
0.00045628
0.000422186
0.000458046
0.0003478
0.000422755
0.000421617
0.000350654
0.000384979
0.000422186
0.000385853
0.000349227
0.000385416
0.000340142
0.000418508
0.000422755
0.0003478
0.000379013
0.000420631
0.000384979
0.000343971
0.000381996
0.000418508
0.000497808
0.000497542
0.000422755
0.000457802
0.000497675
0.000459813
0.000420631
0.000458807
0.000407222
0.000489875
0.000497808
0.000418508
0.000448178
0.000493841
0.000457802
0.000412865
0.00045299
0.000326747
0.000407222
0.000418508
0.000340142
0.000366665
0.000412865
0.000379013
0.000333444
0.000372839
0.000203475
0.000267493
0.000277508
0.00021489
0.000235291
0.0002725
0.00024601
0.000209182
0.00024065
0.000267493
0.000340142
0.0003478
0.000277508
0.000303564
0.000343971
0.000312409
0.0002725
0.000307986
0.000253026
0.000326747
0.000340142
0.000267493
0.00028963
0.000333444
0.000303564
0.000260259
0.000296597
0.000188794
0.000253026
0.000267493
0.000203475
6.58284e-05
9.28914e-05
0.00010058
7.35916e-05
9.28914e-05
0.000127555
0.000134832
0.00010058
8.29794e-05
0.000117674
0.000127555
9.28914e-05
5.63158e-05
8.29794e-05
9.28914e-05
6.58284e-05
0.000127555
0.000170795
0.000177153
0.000134832
0.000170795
0.000222929
0.000227678
0.000177153
0.000196728
0.000225304
0.000202285
0.000173974
0.000199507
0.000161483
0.00021489
0.000222929
0.000170795
0.000117674
0.000161483
0.000170795
0.000127555
0.000105717
0.000149483
0.000161483
0.000117674
0.000149483
0.000203475
0.00021489
0.000161483
0.000135254
0.000188794
0.000203475
0.000149483
9.23971e-05
0.000135254
0.000149483
0.000105717
4.57194e-05
7.15198e-05
8.29794e-05
5.63158e-05
7.15198e-05
0.000105717
0.000117674
8.29794e-05
5.93741e-05
9.23971e-05
0.000105717
7.15198e-05
3.49066e-05
5.93741e-05
7.15198e-05
4.57194e-05
2.47824e-05
4.73374e-05
5.93741e-05
3.49066e-05
4.73374e-05
7.83813e-05
9.23971e-05
5.93741e-05
3.6124e-05
6.43014e-05
7.83813e-05
4.73374e-05
1.61523e-05
3.6124e-05
4.73374e-05
2.47824e-05
7.83813e-05
0.000119284
0.000135254
9.23971e-05
0.000119284
0.000171065
0.000188794
0.000135254
0.000102095
0.000150625
0.000171065
0.000119284
0.000126235
0.000160845
0.000145042
0.000110689
0.000135638
6.43014e-05
0.000102095
0.000119284
7.83813e-05
8.31165e-05
0.000110689
9.87443e-05
7.13413e-05
9.09303e-05
5.07886e-05
8.42787e-05
0.000102095
6.43014e-05
6.74614e-05
9.31866e-05
8.31165e-05
5.75449e-05
7.52889e-05
8.42787e-05
0.000127957
0.000150625
0.000102095
0.000106006
0.000139291
0.000126235
9.31866e-05
0.000116121
6.64347e-05
0.000103666
0.000127957
8.42787e-05
8.4955e-05
0.000115811
0.000106006
7.53566e-05
9.54804e-05
3.83594e-05
6.64347e-05
8.42787e-05
5.07886e-05
5.23366e-05
7.53566e-05
6.74614e-05
4.45739e-05
5.98989e-05
9.5819e-06
2.63561e-05
3.6124e-05
1.61523e-05
1.79445e-05
3.124e-05
2.6109e-05
1.28671e-05
2.20267e-05
2.63561e-05
5.07886e-05
6.43014e-05
3.6124e-05
3.85287e-05
5.75449e-05
5.01622e-05
3.124e-05
4.43454e-05
1.83973e-05
3.83594e-05
5.07886e-05
2.63561e-05
2.83427e-05
4.45739e-05
3.85287e-05
2.23767e-05
3.34357e-05
5.21911e-06
1.83973e-05
2.63561e-05
9.5819e-06
1.1789e-05
2.23767e-05
1.79445e-05
7.4005e-06
1.48668e-05
0.000171065
0.000233931
0.000253026
0.000188794
0.000233931
0.000306877
0.000326747
0.000253026
0.000210234
0.000280098
0.000306877
0.000233931
0.000244923
0.000293487
0.000270151
0.000222082
0.000257537
0.000150625
0.000210234
0.000233931
0.000171065
0.000180251
0.000222082
0.000202309
0.000160845
0.00019128
0.000306877
0.000387427
0.000407222
0.000326747
0.000346832
0.000397324
0.000366665
0.000316812
0.000356748
0.000387427
0.000471361
0.000489875
0.000407222
0.000429018
0.000480618
0.000448178
0.000397324
0.000438597
0.000358042
0.00044034
0.000471361
0.000387427
0.000398822
0.00045585
0.000429018
0.000372734
0.000413919
0.000280098
0.000358042
0.000387427
0.000306877
0.000318761
0.000372734
0.000346832
0.000293487
0.000332796
0.000246367
0.000318564
0.000358042
0.000280098
0.00028218
0.000338302
0.000318761
0.000263232
0.00030047
0.000318564
0.00039566
0.00044034
0.000358042
0.000356767
0.000417999
0.000398822
0.000338302
0.000377794
0.000269182
0.000337183
0.00039566
0.000318564
0.000302878
0.000366421
0.000356767
0.000293872
0.000329822
0.000206088
0.000269182
0.000318564
0.000246367
0.000237385
0.000293872
0.00028218
0.000226227
0.000259782
0.000127957
0.000182215
0.000210234
0.000150625
0.000154923
0.000196224
0.000180251
0.000139291
0.000167587
0.000182215
0.000246367
0.000280098
0.000210234
0.000214069
0.000263232
0.000244923
0.000196224
0.000229495
0.00015041
0.000206088
0.000246367
0.000182215
0.000178056
0.000226227
0.000214069
0.000166312
0.000196062
0.000103666
0.00015041
0.000182215
0.000127957
0.000126898
0.000166312
0.000154923
0.000115811
0.00014091
7.83643e-05
0.000115539
0.00015041
0.000103666
9.68401e-05
0.000132974
0.000126898
9.10149e-05
0.000111869
0.000115539
0.000160077
0.000206088
0.00015041
0.000137654
0.000183082
0.000178056
0.000132974
0.000157854
7.83779e-05
0.00010948
0.000160077
0.000115539
9.38211e-05
0.000134778
0.000137654
9.69581e-05
0.000115737
8.60729e-05
0.000106315
0.000101623
0.000125224
0.000148826
0.000126558
5.25256e-05
7.83779e-05
0.000115539
7.83643e-05
6.53743e-05
9.69581e-05
9.68401e-05
6.54448e-05
8.1107e-05
0.000160077
0.000210813
0.000269182
0.000206088
0.000185244
0.000239997
0.000237385
0.000183082
0.000211314
0.000172611
0.000197142
0.000197978
0.000225598
0.00025322
0.000221675
0.000210813
0.000265886
0.000337183
0.000269182
0.000238103
0.000301533
0.000302878
0.000239997
0.00027049
0.000224397
0.000255175
0.000251932
0.000285942
0.000319954
0.000285955
0.00014504
0.000183839
0.000265886
0.000210813
0.000164266
0.000224861
0.000238103
0.000177926
0.000201184
0.00015461
0.000189503
0.000174008
0.000212969
0.000251932
0.000224397
0.00010948
0.00014504
0.000210813
0.000160077
0.000127119
0.000177926
0.000185244
0.000134778
0.000156181
0.000118265
0.000145437
0.000136044
0.00016701
0.000197978
0.000172611
5.56764e-05
7.39972e-05
0.00014504
0.00010948
6.47644e-05
0.000109518
0.000127119
8.25776e-05
9.59413e-05
6.02025e-05
8.92332e-05
6.93625e-05
0.000102703
0.000136044
0.000118265
7.39972e-05
9.4047e-05
0.000183839
0.00014504
8.39325e-05
0.000138942
0.000164266
0.000109518
0.000124099
7.89428e-05
0.000116776
8.8967e-05
0.000131487
0.000174008
0.00015461
2.15222e-07
2.03159e-07
9.4047e-05
7.39972e-05
2.09244e-07
4.71248e-05
8.39325e-05
3.7106e-05
4.20706e-05
2.12246e-07
3.95773e-05
2.06215e-07
4.45864e-05
8.8967e-05
7.89428e-05
2.20785e-07
2.15222e-07
7.39972e-05
5.56764e-05
2.18025e-07
3.7106e-05
6.47644e-05
2.79485e-05
3.24911e-05
2.1941e-07
3.02108e-05
2.16629e-07
3.47894e-05
6.93625e-05
6.02025e-05
2.64253e-05
3.96862e-05
7.83779e-05
5.25256e-05
3.30161e-05
5.90319e-05
6.53743e-05
3.94753e-05
4.91951e-05
3.63412e-05
5.40987e-05
7.18566e-05
4.43207e-05
5.89308e-05
3.96862e-05
5.56764e-05
0.00010948
7.83779e-05
4.7626e-05
8.25776e-05
9.38211e-05
5.90319e-05
7.07233e-05
4.36424e-05
6.48574e-05
5.16372e-05
7.66299e-05
0.000101623
8.60729e-05
2.19721e-07
2.20785e-07
5.56764e-05
3.96862e-05
2.20249e-07
2.79485e-05
4.7626e-05
1.99529e-05
2.3923e-05
2.19984e-07
2.19311e-05
2.20516e-07
2.59288e-05
5.16372e-05
4.36424e-05
2.12798e-07
2.19721e-07
3.96862e-05
2.64253e-05
2.16239e-07
1.99529e-05
3.30161e-05
1.3319e-05
1.66161e-05
2.14513e-07
1.49627e-05
2.17974e-07
1.82795e-05
3.63412e-05
2.97109e-05
2.72831e-06
1.22218e-05
1.83973e-05
5.21911e-06
7.46122e-06
1.53095e-05
1.1789e-05
3.97371e-06
9.62511e-06
1.22218e-05
2.72688e-05
3.83594e-05
1.83973e-05
1.97184e-05
3.28141e-05
2.83427e-05
1.53095e-05
2.40306e-05
7.46822e-06
1.74522e-05
2.72688e-05
1.22218e-05
1.24424e-05
2.23605e-05
1.97184e-05
9.84499e-06
1.60804e-05
1.45044e-06
7.46822e-06
1.22218e-05
2.72831e-06
4.45057e-06
9.84499e-06
7.46122e-06
2.08937e-06
5.95589e-06
2.72688e-05
4.903e-05
6.64347e-05
3.83594e-05
3.81026e-05
5.77323e-05
5.23366e-05
3.28141e-05
4.52195e-05
4.903e-05
7.83643e-05
0.000103666
6.64347e-05
6.36221e-05
9.10149e-05
8.4955e-05
5.77323e-05
7.42884e-05
3.22709e-05
5.25256e-05
7.83643e-05
4.903e-05
4.23465e-05
6.54448e-05
6.36221e-05
4.06504e-05
5.29842e-05
1.74522e-05
3.22709e-05
4.903e-05
2.72688e-05
2.48297e-05
4.06504e-05
3.81026e-05
2.23605e-05
3.14661e-05
8.57842e-06
1.60798e-05
3.22709e-05
1.74522e-05
1.2313e-05
2.41753e-05
2.48297e-05
1.30153e-05
1.85713e-05
1.60798e-05
2.64253e-05
5.25256e-05
3.22709e-05
2.12261e-05
3.94753e-05
4.23465e-05
2.41753e-05
3.17862e-05
2.01089e-07
2.12798e-07
2.64253e-05
1.60798e-05
2.06914e-07
1.3319e-05
2.12261e-05
8.14041e-06
1.07165e-05
1.85646e-07
2.01089e-07
1.60798e-05
8.57842e-06
1.93334e-07
8.14041e-06
1.2313e-05
4.38203e-06
6.25314e-06
7.22997e-07
3.61523e-06
7.46822e-06
1.45044e-06
3.61523e-06
8.57842e-06
1.74522e-05
7.46822e-06
6.08797e-06
1.30153e-05
1.24424e-05
5.54172e-06
9.26517e-06
1.67416e-07
1.85646e-07
8.57842e-06
3.61523e-06
1.76499e-07
4.38203e-06
6.08797e-06
1.89132e-06
3.13223e-06
1.4741e-07
1.67416e-07
3.61523e-06
7.22997e-07
-4.73646e-06
-5.72913e-06
-3.02174e-06
-2.50563e-06
-4.37543e-06
-7.40047e-06
-4.77467e-06
-3.02174e-06
-7.40047e-06
-7.31181e-06
-3.56488e-06
-4.77467e-06
-9.21029e-06
-9.42498e-06
-7.31181e-06
-7.40047e-06
-5.72913e-06
-9.21029e-06
-7.40047e-06
-4.37543e-06
-6.06989e-06
-1.01584e-05
-9.21029e-06
-5.72913e-06
-1.01584e-05
-1.00327e-05
-9.42498e-06
-9.21029e-06
-1.05228e-05
-1.01646e-05
-1.00327e-05
-1.01584e-05
-6.41066e-06
-1.05228e-05
-1.01584e-05
-6.06989e-06
-5.20898e-06
-6.41066e-06
-5.72913e-06
-4.73646e-06
-7.31181e-06
-5.19412e-06
-1.12579e-07
-3.56488e-06
-5.19412e-06
-2.71575e-07
6.38249e-06
-1.12579e-07
-8.14875e-06
-4.70338e-06
-2.71575e-07
-5.19412e-06
-9.42498e-06
-8.14875e-06
-5.19412e-06
-7.31181e-06
-2.71575e-07
9.31893e-06
1.76424e-05
6.38249e-06
9.31893e-06
2.47824e-05
3.49066e-05
1.76424e-05
2.96793e-06
1.61523e-05
2.47824e-05
9.31893e-06
-4.70338e-06
2.96793e-06
9.31893e-06
-2.71575e-07
-6.59626e-06
-9.51747e-07
2.96793e-06
-4.70338e-06
-9.51747e-07
9.5819e-06
1.61523e-05
2.96793e-06
-2.59187e-06
5.21911e-06
9.5819e-06
-9.51747e-07
-6.56702e-06
-2.59187e-06
-9.51747e-07
-6.59626e-06
-1.00327e-05
-8.86552e-06
-8.14875e-06
-9.42498e-06
-8.86552e-06
-6.59626e-06
-4.70338e-06
-8.14875e-06
-8.47275e-06
-6.56702e-06
-6.59626e-06
-8.86552e-06
-1.01646e-05
-8.47275e-06
-8.86552e-06
-1.00327e-05
-1.02074e-05
-7.68645e-06
-8.47275e-06
-1.01646e-05
-7.68645e-06
-5.35857e-06
-6.56702e-06
-8.47275e-06
-6.22057e-06
-3.60076e-06
-5.35857e-06
-7.68645e-06
-9.17764e-06
-6.22057e-06
-7.68645e-06
-1.02074e-05
-5.35857e-06
-2.55597e-06
-2.59187e-06
-6.56702e-06
-2.55597e-06
2.72831e-06
5.21911e-06
-2.59187e-06
-1.69594e-06
1.45044e-06
2.72831e-06
-2.55597e-06
-3.60076e-06
-1.69594e-06
-2.55597e-06
-5.35857e-06
-1.75631e-06
-7.25106e-07
-1.69594e-06