# vtk DataFile Version 2.0

ASCII

DATASET UNSTRUCTURED_GRID
POINTS 6208 float
0 0.9375 106.646
0.0625 0.9375 104.335
0.0625 1 106.844
0 1 106.903
0.03125 0.9375 105.499
0.0625 0.96875 105.595
0.03125 1 106.875
0 0.96875 106.777
0.03125 0.96875 106.19
0.0625 0.9375 104.335
0.125 0.9375 99.2613
0.125 1 101.962
0.0625 1 106.844
0.0625 0.875 99.393
0.125 0.875 94.3597
0.125 0.9375 99.2613
0.0625 0.9375 104.335
0 0.875 101.789
0.0625 0.875 99.393
0.0625 0.9375 104.335
0 0.9375 106.646
0.125 0.9375 99.2613
0.1875 0.9375 95.3636
0.1875 1 97.8983
0.125 1 101.962
0.1875 0.9375 95.3636
0.25 0.9375 91.8224
0.25 1 94.1431
0.1875 1 97.8983
0.1875 0.875 90.398
0.25 0.875 86.8589
0.25 0.9375 91.8224
0.1875 0.9375 95.3636
0.125 0.875 94.3597
0.1875 0.875 90.398
0.1875 0.9375 95.3636
0.125 0.9375 99.2613
0.125 0.8125 90.558
0.1875 0.8125 86.4381
0.1875 0.875 90.398
0.125 0.875 94.3597
0.1875 0.8125 86.4381
0.25 0.8125 82.8397
0.25 0.875 86.8589
0.1875 0.875 90.398
0.1875 0.75 82.8185
0.25 0.75 79.2387
0.25 0.8125 82.8397
0.1875 0.8125 86.4381
0.125 0.75 87.0255
0.1875 0.75 82.8185
0.1875 0.8125 86.4381
0.125 0.8125 90.558
0 0.8125 98.0328
0.0625 0.8125 95.7142
0.0625 0.875 99.393
0 0.875 101.789
0.0625 0.8125 95.7142
0.125 0.8125 90.558
0.125 0.875 94.3597
0.0625 0.875 99.393
0.0625 0.75 92.2413
0.125 0.75 87.0255
0.125 0.8125 90.558
0.0625 0.8125 95.7142
0 0.75 94.4883
0.0625 0.75 92.2413
0.0625 0.8125 95.7142
0 0.8125 98.0328
0.25 0.9375 91.8224
0.3125 0.9375 88.295
0.3125 1 90.4971
0.25 1 94.1431
0.3125 0.9375 88.295
0.375 0.9375 84.7205
0.375 1 86.8734
0.3125 1 90.4971
0.3125 0.875 83.3256
0.375 0.875 79.7192
0.375 0.9375 84.7205
0.3125 0.9375 88.295
0.25 0.875 86.8589
0.3125 0.875 83.3256
0.3125 0.9375 88.295
0.25 0.9375 91.8224
0.375 0.9375 84.7205
0.4375 0.9375 80.9337
0.4375 1 83.1047
0.375 1 86.8734
0.4375 0.9375 80.9337
0.5 0.9375 76.5998
0.5 1 78.8308
0.4375 1 83.1047
0.4375 0.875 75.8866
0.5 0.875 71.5189
0.5 0.9375 76.5998
0.4375 0.9375 80.9337
0.375 0.875 79.7192
0.4375 0.875 75.8866
0.4375 0.9375 80.9337
0.375 0.9375 84.7205
0.375 0.8125 75.5899
0.4375 0.8125 71.6671
0.4375 0.875 75.8866
0.375 0.875 79.7192
0.4375 0.8125 71.6671
0.5 0.8125 67.2326
0.5 0.875 71.5189
0.4375 0.875 75.8866
0.4375 0.75 68.1928
0.5 0.75 63.8106
0.5 0.8125 67.2326
0.4375 0.8125 71.6671
0.375 0.75 72.0922
0.4375 0.75 68.1928
0.4375 0.8125 71.6671
0.375 0.8125 75.5899
0.25 0.8125 82.8397
0.3125 0.8125 79.2671
0.3125 0.875 83.3256
0.25 0.875 86.8589
0.3125 0.8125 79.2671
0.375 0.8125 75.5899
0.375 0.875 79.7192
0.3125 0.875 83.3256
0.3125 0.75 75.7267
0.375 0.75 72.0922
0.375 0.8125 75.5899
0.3125 0.8125 79.2671
0.25 0.75 79.2387
0.3125 0.75 75.7267
0.3125 0.8125 79.2671
0.25 0.8125 82.8397
0.25 0.6875 75.9531
0.3125 0.6875 72.5789
0.3125 0.75 75.7267
0.25 0.75 79.2387
0.3125 0.6875 72.5789
0.375 0.6875 69.0955
0.375 0.75 72.0922
0.3125 0.75 75.7267
0.3125 0.625 70.1369
0.375 0.625 66.9493
0.375 0.6875 69.0955
0.3125 0.6875 72.5789
0.25 0.625 73.2808
0.3125 0.625 70.1369
0.3125 0.6875 72.5789
0.25 0.6875 75.9531
0.375 0.6875 69.0955
0.4375 0.6875 65.3433
0.4375 0.75 68.1928
0.375 0.75 72.0922
0.4375 0.6875 65.3433
0.5 0.6875 61.1329
0.5 0.75 63.8106
0.4375 0.75 68.1928
0.4375 0.625 63.531
0.5 0.625 59.6887
0.5 0.6875 61.1329
0.4375 0.6875 65.3433
0.375 0.625 66.9493
0.4375 0.625 63.531
0.4375 0.6875 65.3433
0.375 0.6875 69.0955
0.375 0.5625 66.0529
0.4375 0.5625 63.2544
0.4375 0.625 63.531
0.375 0.625 66.9493
0.40625 0.5625 64.6642
0.4375 0.59375 63.4048
0.40625 0.625 65.2526
0.375 0.59375 66.5117
0.40625 0.59375 64.9697
0.4375 0.5625 63.2544
0.5 0.5625 60.1446
0.5 0.625 59.6887
0.4375 0.625 63.531
0.46875 0.5625 61.7106
0.5 0.59375 59.9298
0.46875 0.625 61.6233
0.4375 0.59375 63.4048
0.46875 0.59375 61.6795
0.4375 0.5 64.566
0.5 0.5 62.5556
0.5 0.5625 60.1446
0.4375 0.5625 63.2544
0.46875 0.5 63.5687
0.5 0.53125 61.3736
0.46875 0.5625 61.7106
0.4375 0.53125 63.9289
0.46875 0.53125 62.6606
0.375 0.5 66.5028
0.4375 0.5 64.566
0.4375 0.5625 63.2544
0.375 0.5625 66.0529
0.40625 0.5 65.5424
0.4375 0.53125 63.9289
0.40625 0.5625 64.6642
0.375 0.53125 66.2923
0.40625 0.53125 65.1198
0.25 0.5625 71.5325
0.3125 0.5625 68.7476
0.3125 0.625 70.1369
0.25 0.625 73.2808
0.3125 0.5625 68.7476
0.375 0.5625 66.0529
0.375 0.625 66.9493
0.3125 0.625 70.1369
0.34375 0.5625 67.4108
0.375 0.59375 66.5117
0.34375 0.625 68.5551
0.3125 0.59375 69.4511
0.34375 0.59375 67.9926
0.3125 0.5 68.5589
0.375 0.5 66.5028
0.375 0.5625 66.0529
0.3125 0.5625 68.7476
0.34375 0.5 67.5395
0.375 0.53125 66.2923
0.34375 0.5625 67.4108
0.3125 0.53125 68.6641
0.34375 0.53125 67.4877
0.25 0.5 70.8854
0.3125 0.5 68.5589
0.3125 0.5625 68.7476
0.25 0.5625 71.5325
0.28125 0.5 69.7321
0.3125 0.53125 68.6641
0.28125 0.5625 70.1513
0.25 0.53125 71.2166
0.28125 0.53125 69.9509
0 0.6875 91.2347
0.0625 0.6875 88.9992
0.0625 0.75 92.2413
0 0.75 94.4883
0.0625 0.6875 88.9992
0.125 0.6875 83.7381
0.125 0.75 87.0255
0.0625 0.75 92.2413
0.0625 0.625 86.1609
0.125 0.625 80.941
0.125 0.6875 83.7381
0.0625 0.6875 88.9992
0 0.625 88.3468
0.0625 0.625 86.1609
0.0625 0.6875 88.9992
0 0.6875 91.2347
0.125 0.6875 83.7381
0.1875 0.6875 79.4725
0.1875 0.75 82.8185
0.125 0.75 87.0255
0.1875 0.6875 79.4725
0.25 0.6875 75.9531
0.25 0.75 79.2387
0.1875 0.75 82.8185
0.1875 0.625 76.6819
0.25 0.625 73.2808
0.25 0.6875 75.9531
0.1875 0.6875 79.4725
0.125 0.625 80.941
0.1875 0.625 76.6819
0.1875 0.6875 79.4725
0.125 0.6875 83.7381
0.125 0.5625 78.8369
0.1875 0.5625 74.712
0.1875 0.625 76.6819
0.125 0.625 80.941
0.1875 0.5625 74.712
0.25 0.5625 71.5325
0.25 0.625 73.2808
0.1875 0.625 76.6819
0.1875 0.5 73.7358
0.25 0.5 70.8854
0.25 0.5625 71.5325
0.1875 0.5625 74.712
0.125 0.5 77.5728
0.1875 0.5 73.7358
0.1875 0.5625 74.712
0.125 0.5625 78.8369
0 0.5625 85.9249
0.0625 0.5625 83.8644
0.0625 0.625 86.1609
0 0.625 88.3468
0.0625 0.5625 83.8644
0.125 0.5625 78.8369
0.125 0.625 80.941
0.0625 0.625 86.1609
0.0625 0.5 82.2355
0.125 0.5 77.5728
0.125 0.5625 78.8369
0.0625 0.5625 83.8644
0 0.5 84.0884
0.0625 0.5 82.2355
0.0625 0.5625 83.8644
0 0.5625 85.9249
0.5 0.9375 76.5998
0.5625 0.9375 71.2079
0.5625 1 73.4666
0.5 1 78.8308
0.53125 0.9375 73.9186
0.5625 0.96875 72.3938
0.53125 1 76.1638
0.5 0.96875 77.7595
0.53125 0.96875 75.0912
0.5625 0.9375 71.2079
0.625 0.9375 63.3413
0.625 1 65.1699
0.5625 1 73.4666
0.59375 0.9375 67.3142
0.625 0.96875 64.3522
0.59375 1 69.3592
0.5625 0.96875 72.3938
0.59375 0.96875 68.4113
0.5625 0.875 66.1795
0.625 0.875 58.8994
0.625 0.9375 63.3413
0.5625 0.9375 71.2079
0.59375 0.875 62.5729
0.625 0.90625 61.1869
0.59375 0.9375 67.3142
0.5625 0.90625 68.7488
0.59375 0.90625 65.0033
0.5 0.875 71.5189
0.5625 0.875 66.1795
0.5625 0.9375 71.2079
0.5 0.9375 76.5998
0.53125 0.875 68.864
0.5625 0.90625 68.7488
0.53125 0.9375 73.9186
0.5 0.90625 74.1071
0.53125 0.90625 71.4424
0.625 0.9375 63.3413
0.6875 0.9375 52.2064
0.6875 1 59.0239
0.625 1 65.1699
0.65625 0.9375 57.8843
0.6875 0.96875 55.7906
0.65625 1 62.2333
0.625 0.96875 64.3522
0.65625 0.96875 60.1853
0.640625 0.9375 60.6374
0.65625 0.953125 59.0679
0.640625 0.96875 62.2949
0.625 0.953125 63.8714
0.640625 0.953125 61.4943
0.671875 0.9375 55.0763
0.6875 0.953125 54.0457
0.671875 0.96875 58.0189
0.671875 0.953125 56.5869
0.6875 0.984375 57.4479
0.671875 1 60.6647
0.65625 0.984375 61.2396
0.671875 0.984375 59.3768
0.640625 1 63.7338
0.625 0.984375 64.7848
0.640625 0.984375 63.0409
0.6875 0.9375 52.2064
0.75 0.9375 30.7568
0.75 1 26.6718
0.6875 1 59.0239
0.71875 0.9375 41.7069
0.75 0.96875 28.8292
0.71875 1 43.1606
0.6875 0.96875 55.7906
0.71875 0.96875 42.5895
0.703125 0.9375 46.9951
0.71875 0.953125 42.1864
0.703125 0.96875 49.2312
0.6875 0.953125 54.0457
0.703125 0.953125 48.1566
0.695312 0.9375 49.609
0.703125 0.945312 47.5869
0.695312 0.953125 51.1096
0.6875 0.945312 53.1383
0.695312 0.945312 50.371
0.710938 0.9375 44.3622
0.71875 0.945312 41.9561
0.710938 0.953125 45.1836
0.710938 0.945312 44.7832
0.71875 0.960938 42.3976
0.710938 0.96875 45.923
0.703125 0.960938 48.7046
0.710938 0.960938 45.5635
0.695312 0.96875 52.5192
0.6875 0.960938 54.9295
0.695312 0.960938 51.8255
0.734375 0.9375 36.3108
0.75 0.953125 29.8163
0.734375 0.96875 35.8189
0.734375 0.953125 36.096
0.726562 0.9375 39.0248
0.734375 0.945312 36.2108
0.726562 0.953125 39.1595
0.726562 0.945312 39.1007
0.742188 0.9375 33.5578
0.75 0.945312 30.2919
0.742188 0.953125 32.986
0.742188 0.945312 33.2782
0.75 0.960938 29.3292
0.742188 0.96875 32.36
0.734375 0.960938 35.9655
0.742188 0.960938 32.6802
0.726562 0.96875 39.2245
0.726562 0.960938 39.201
0.75 0.984375 27.7855
0.734375 1 35.0532
0.71875 0.984375 42.9148
0.734375 0.984375 35.4736
0.734375 0.976562 35.6551
0.726562 0.984375 39.2159
0.71875 0.976562 42.762
0.726562 0.976562 39.2296
0.75 0.976562 28.3152
0.742188 0.984375 31.6717
0.742188 0.976562 32.0242
0.75 0.992188 27.2383
0.742188 1 30.9115
0.734375 0.992188 35.2732
0.742188 0.992188 31.3013
0.726562 1 39.1297
0.71875 0.992188 43.0477
0.726562 0.992188 39.1828
0.703125 1 51.1313
0.6875 0.984375 57.4479
0.703125 0.984375 50.2219
0.703125 0.976562 49.7369
0.695312 0.984375 53.8429
0.6875 0.976562 56.6298
0.695312 0.976562 53.1915
0.710938 0.984375 46.581
0.710938 0.976562 46.2621
0.710938 1 47.1584
0.703125 0.992188 50.6865
0.710938 0.992188 46.8797
0.695312 1 55.0851
0.6875 0.992188 58.2457
0.695312 0.992188 54.4739
0.6875 0.875 48.8267
0.75 0.875 34.6707
0.75 0.9375 30.7568
0.6875 0.9375 52.2064
0.71875 0.875 41.8939
0.75 0.90625 32.725
0.71875 0.9375 41.7069
0.6875 0.90625 50.5757
0.71875 0.90625 41.84
0.703125 0.875 45.3895
0.71875 0.890625 41.8766
0.703125 0.90625 46.2431
0.6875 0.890625 49.7164
0.703125 0.890625 45.829
0.734375 0.875 38.3268
0.734375 0.90625 37.3446
0.726562 0.875 40.1203
0.734375 0.890625 37.8417
0.726562 0.90625 39.6056
0.726562 0.890625 39.8708
0.742188 0.875 36.5112
0.75 0.890625 33.7003
0.742188 0.90625 35.0529
0.742188 0.890625 35.7862
0.734375 0.9375 36.3108
0.734375 0.921875 36.8346
0.726562 0.9375 39.0248
0.71875 0.921875 41.7837
[...]
POINT_DATA 6208
SCALARS "pressure" float 1
LOOKUP_TABLE default
106.646
104.335
106.844
106.903
105.499
105.595
106.875
106.777
106.19
104.335
99.2613
101.962
106.844
99.393
94.3597
99.2613
104.335
101.789
99.393
104.335
106.646
99.2613
95.3636
97.8983
101.962
95.3636
91.8224
94.1431
97.8983
90.398
86.8589
91.8224
95.3636
94.3597
90.398
95.3636
99.2613
90.558
86.4381
90.398
94.3597
86.4381
82.8397
86.8589
90.398
82.8185
79.2387
82.8397
86.4381
87.0255
82.8185
86.4381
90.558
98.0328
95.7142
99.393
101.789
95.7142
90.558
94.3597
99.393
92.2413
87.0255
90.558
95.7142
94.4883
92.2413
95.7142
98.0328
91.8224
88.295
90.4971
94.1431
88.295
84.7205
86.8734
90.4971
83.3256
79.7192
84.7205
88.295
86.8589
83.3256
88.295
91.8224
84.7205
80.9337
83.1047
86.8734
80.9337
76.5998
78.8308
83.1047
75.8866
71.5189
76.5998
80.9337
79.7192
75.8866
80.9337
84.7205
75.5899
71.6671
75.8866
79.7192
71.6671
67.2326
71.5189
75.8866
68.1928
63.8106
67.2326
71.6671
72.0922
68.1928
71.6671
75.5899
82.8397
79.2671
83.3256
86.8589
79.2671
75.5899
79.7192
83.3256
75.7267
72.0922
75.5899
79.2671
79.2387
75.7267
79.2671
82.8397
75.9531
72.5789
75.7267
79.2387
72.5789
69.0955
72.0922
75.7267
70.1369
66.9493
69.0955
72.5789
73.2808
70.1369
72.5789
75.9531
69.0955
65.3433
68.1928
72.0922
65.3433
61.1329
63.8106
68.1928
63.531
59.6887
61.1329
65.3433
66.9493
63.531
65.3433
69.0955
66.0529
63.2544
63.531
66.9493
64.6642
63.4048
65.2526
66.5117
64.9697
63.2544
60.1446
59.6887
63.531
61.7106
59.9298
61.6233
63.4048
61.6795
64.566
62.5556
60.1446
63.2544
63.5687
61.3736
61.7106
63.9289
62.6606
66.5028
64.566
63.2544
66.0529
65.5424
63.9289
64.6642
66.2923
65.1198
71.5325
68.7476
70.1369
73.2808
68.7476
66.0529
66.9493
70.1369
67.4108
66.5117
68.5551
69.4511
67.9926
68.5589
66.5028
66.0529
68.7476
67.5395
66.2923
67.4108
68.6641
67.4877
70.8854
68.5589
68.7476
71.5325
69.7321
68.6641
70.1513
71.2166
69.9509
91.2347
88.9992
92.2413
94.4883
88.9992
83.7381
87.0255
92.2413
86.1609
80.941
83.7381
88.9992
88.3468
86.1609
88.9992
91.2347
83.7381
79.4725
82.8185
87.0255
79.4725
75.9531
79.2387
82.8185
76.6819
73.2808
75.9531
79.4725
80.941
76.6819
79.4725
83.7381
78.8369
74.712
76.6819
80.941
74.712
71.5325
73.2808
76.6819
73.7358
70.8854
71.5325
74.712
77.5728
73.7358
74.712
78.8369
85.9249
83.8644
86.1609
88.3468
83.8644
78.8369
80.941
86.1609
82.2355
77.5728
78.8369
83.8644
84.0884
82.2355
83.8644
85.9249
76.5998
71.2079
73.4666
78.8308
73.9186
72.3938
76.1638
77.7595
75.0912
71.2079
63.3413
65.1699
73.4666
67.3142
64.3522
69.3592
72.3938
68.4113
66.1795
58.8994
63.3413
71.2079
62.5729
61.1869
67.3142
68.7488
65.0033
71.5189
66.1795
71.2079
76.5998
68.864
68.7488
73.9186
74.1071
71.4424
63.3413
52.2064
59.0239
65.1699
57.8843
55.7906
62.2333
64.3522
60.1853
60.6374
59.0679
62.2949
63.8714
61.4943
55.0763
54.0457
58.0189
56.5869
57.4479
60.6647
61.2396
59.3768
63.7338
64.7848
63.0409
52.2064
30.7568
26.6718
59.0239
41.7069
28.8292
43.1606
55.7906
42.5895
46.9951
42.1864
49.2312
54.0457
48.1566
49.609
47.5869
51.1096
53.1383
50.371
44.3622
41.9561
45.1836
44.7832
42.3976
45.923
48.7046
45.5635
52.5192
54.9295
51.8255
36.3108
29.8163
35.8189
36.096
39.0248
36.2108
39.1595
39.1007
33.5578
30.2919
32.986
33.2782
29.3292
32.36
35.9655
32.6802
39.2245
39.201
27.7855
35.0532
42.9148
35.4736
35.6551
39.2159
42.762
39.2296
28.3152
31.6717
32.0242
27.2383
30.9115
35.2732
31.3013
39.1297
43.0477
39.1828
51.1313
57.4479
50.2219
49.7369
53.8429
56.6298
53.1915
46.581
46.2621
47.1584
50.6865
46.8797
55.0851
58.2457
54.4739
48.8267
34.6707
30.7568
52.2064
41.8939
32.725
41.7069
50.5757
41.84
45.3895
41.8766
46.2431
49.7164
45.829
38.3268
37.3446
40.1203
37.8417
39.6056
39.8708
36.5112
33.7003
35.0529
35.7862
36.3108
36.8346
39.0248
41.7837
39.3239
31.744
33.5578
34.3103
46.9951
51.4054
46.6318
58.8994
48.8267
52.2064
63.3413
53.9444
50.5757
57.8843
61.1869
55.976
56.4402
54.9762
58.6027
60.0605
57.538
51.4081
49.7164
53.3022
52.3707
51.4054
55.0763
56.945
54.2037
60.6374
62.28
59.6354
55.1811
46.6363
48.8267
58.8994
50.9647
47.7531
53.9444
57.0762
52.4831
50.1369
48.2952
51.4081
53.2207
50.7786
46.6363
36.3607
34.6707
48.8267
41.5876
35.5185
41.8939
47.7531
41.7526
44.1312
44.7772
38.9998
38.6702
38.3268
45.3895
45.1771
37.0232
36.3607
46.6363
41.1561
36.6929
41.5876
45.9152
41.3759
43.1791
43.6614
39.1052
39.0547
38.9998
44.1312
52.4991
45.1771
46.6363
55.1811
48.8771
45.9152
50.9647
53.8576
49.9337
67.2326
61.924
66.1795
71.5189
61.924
55.1811
58.8994
66.1795
58.5809
57.0762
62.5729
64.0884
60.613
58.677
52.4991
55.1811
61.924
55.6123
53.8576
58.5809
60.3205
57.1153
63.8106
58.677
61.924
67.2326
30.7568
14.3357
6.87485
26.6718
22.8313
10.8246
17.5515
28.8292
20.2796
26.8359
21.5717
24.6123
29.8163
25.7434
18.6955
15.7473
16.5524
12.6117
13.3548
17.2383
14.9748
8.93691
12.598
18.9447
14.2083
11.6718
9.88886
22.191
27.7855
23.4328
14.3357
7.24676
5.34817
6.87485
10.9451
6.32373
6.14135
10.8246
8.66078
12.6659
9.82198
9.75862
12.6117
11.2379
9.15103
6.79025
7.52084
8.34792
5.84436
5.75327
7.44396
6.66071
8.93691
8.06081
8.20099
9.89667
8.99198
6.80605
6.5146
7.93482
7.37856
21.8747
13.6267
7.24676
14.3357
17.8693
10.5026
10.9451
18.1321
14.4442
15.7868
12.075
12.5163
16.163
14.1593
8.89914
9.15103
12.7076
10.8508
16.3107
12.6659
16.243
14.4989
34.6707
21.8747
14.3357
30.7568
28.4369
18.1321
22.8313
32.725
25.6421
31.5842
29.2194
25.2097
21.9629
18.6955
26.8359
7.24676
4.78798
4.57951
5.34817
6.05887
4.68462
4.9741
6.32373
5.52752
4.78798
4.12316
4.27031
4.57951
9.06954
6.54537
4.12316
4.78798
7.83561
5.36042
4.46149
6.98614
6.19113
5.34135
5.90819
13.6267
9.06954
4.78798
7.24676
11.4099
6.98614
6.05887
10.5026
8.7963
12.5305
10.1129
9.65968
12.075
11.1052
10.259
8.03702
7.90738
9.09273
5.90819
5.43625
7.45051
6.69388
6.66107
8.89914
8.1841
18.766
13.5112
9.06954
13.6267
16.1947
11.3316
11.4099
16.2263
13.836
13.5112
10.1227
6.54537
9.06954
11.8495
8.37458
7.83561
11.3316
9.88292
17.0552
13.3682
10.1227
13.5112
15.2423
11.7766
11.8495
15.3106
13.5744
22.2572
17.0552
13.5112
18.766
19.7014
15.3106
16.1947
20.5289
17.9689
36.3607
26.4672
21.8747
34.6707
31.5154
24.18
28.4369
35.5185
29.9784
33.959
32.7737
29.0217
27.1196
25.2097
31.5842
26.4672
18.766
13.6267
21.8747
22.7012
16.2263
17.8693
24.18
20.3004
29.0493
22.2572
18.766
26.4672
25.7121
20.5289
22.7012
27.7634
24.2158
37.0232
29.0493
26.4672
36.3607
33.1005
27.7634
31.5154
36.6929
32.3093
37.2987
30.558
29.0493
37.0232
33.9705
29.8063
33.1005
37.1614
33.5363
30.558
24.5851
22.2572
29.0493
27.6123
23.431
25.7121
29.8063
26.6675
32.4913
27.1656
24.5851
30.558
29.8573
25.8786
27.6123
31.5252
28.7362
38.404
32.4913
30.558
37.2987
35.4768
31.5252
33.9705
37.852
34.7239
24.5851
19.7503
17.0552
22.2572
19.7503
16.1731
13.3682
17.0552
22.7586
19.4542
16.1731
19.7503
27.1656
22.7586
19.7503
24.5851
32.7469
28.7951
22.7586
27.1656
28.7951
25.7259
19.4542
22.7586
39.4115
36.4781
25.7259
28.7951
37.9633
31.1602
27.279
34.1662
32.6818
42.8185
39.4115
28.7951
32.7469
41.1342
34.1662
30.7916
37.8448
36.0254
42.4678
37.4048
32.4913
38.404
39.9574
34.9612
35.4768
40.4493
37.7301
37.4048
32.7469
27.1656
32.4913
35.0975
29.97
29.8573
34.9612
32.4906
46.5728
42.8185
32.7469
37.4048
44.7139
37.8448
35.0975
42.0463
39.9653
50.4438
46.5728
37.4048
42.4678
48.5245
42.0463
39.9574
46.5065
44.2947
61.1329
56.2709
58.677
63.8106
56.2709
50.6145
52.4991
58.677
53.4636
51.5655
55.6123
57.4849
54.5477
55.2534
50.1446
50.6145
56.2709
52.7168
50.3857
53.4636
55.7703
53.0973
59.6887
55.2534
56.2709
61.1329
57.4861
55.7703
58.7182
60.4199
58.1108
50.6145
44.1868
45.1771
52.4991
47.4292
44.6858
48.8771
51.5655
48.1593
44.1868
37.2987
37.0232
45.1771
40.78
37.1614
41.1561
44.6858
40.9698
44.4365
38.404
37.2987
44.1868
41.4466
37.852
40.78
44.3148
41.115
50.1446
44.4365
44.1868
50.6145
47.3124
44.3148
47.4292
50.3857
47.3754
52.3157
47.5531
44.4365
50.1446
49.9506
46.0086
47.3124
51.2442
48.6453
47.5531
42.4678
38.404
44.4365
45.0294
40.4493
41.4466
46.0086
43.2514
54.1517
50.4438
42.4678
47.5531
52.3113
46.5065
45.0294
50.8955
48.7169
57.4573
54.1517
47.5531
52.3157
55.8155
50.8955
49.9506
54.9222
52.9221
60.1446
56.5315
55.2534
59.6887
58.3502
55.9063
57.4861
59.9298
57.9316
56.5315
52.3157
50.1446
55.2534
54.4374
51.2442
52.7168
55.9063
53.5909
60.2444
57.4573
52.3157
56.5315
58.86
54.9222
54.4374
58.417
56.6808
62.5556
60.2444
56.5315
60.1446
61.4082
58.417
58.3502
61.3736
59.9052
65.8432
64.9062
60.2444
62.5556
65.38
62.6137
61.4082
64.2299
63.4283
64.9062
63.6759
57.4573
60.2444
64.2971
60.6138
58.86
62.6137
61.6211
68.3933
68.2249
63.6759
64.9062
68.3134
65.9861
64.2971
66.6807
66.3384
68.4571
68.3933
64.9062
65.8432
68.4291
66.6807
65.38
67.1761
66.9329
63.6759
61.9615
54.1517
57.4573
62.8265
58.1128
55.8155
60.6138
59.3725
61.9615
59.7317
50.4438
54.1517
60.8571
55.1521
52.3113
58.1128
56.6443
67.589
66.3127
59.7317
61.9615
66.9586
63.059
60.8571
64.8127
63.9449
68.2249
67.589
61.9615
63.6759
67.9123
64.8127
62.8265
65.9861
65.4059
69.7002
69.4784
67.589
68.2249
69.4784
68.8309
66.3127
67.589
69.1598
67.5846
66.9586
68.5475
68.0724
69.659
69.1792
68.8309
69.4784
69.8126
69.659
69.4784
69.7002
69.7049
69.7797
68.3933
68.4571
69.7797
69.7002
68.2249
68.3933
69.8945
69.8126
69.7002
69.7797
70.0217
69.8945
69.7797
69.7049
59.7317
57.1107
46.5728
50.4438
58.4348
51.912
48.5245
55.1521
53.5468
57.1107
54.2837
42.8185
46.5728
55.7138
48.6235
44.7139
51.912
50.2852
64.5102
62.3354
54.2837
57.1107
63.4367
58.3427
55.7138
60.846
59.6095
66.3127
64.5102
57.1107
59.7317
65.4222
60.846
58.4348
63.059
61.9646
54.2837
51.4074
39.4115
42.8185
52.8642
45.479
41.1342
48.6235
47.0703
51.4074
48.5738
36.4781
39.4115
50.0094
42.5873
37.9633
45.479
44.0518
59.8774
57.2312
48.5738
51.4074
62.3354
59.8774
51.4074
54.2837
65.7725
63.7133
59.8774
62.3354
63.7133
61.4166
57.2312
59.8774
65.2914
63.4879
61.4166
63.7133
66.881
65.2914
63.7133
65.7725
68.8309
67.5006
64.5102
66.3127
67.5006
65.7725
62.3354
64.5102
68.2039
66.881
65.7725
67.5006
69.1792
68.2039
67.5006
68.8309
69.1783
68.3972
68.2039
69.1792
68.3972
67.3724
66.881
68.2039
68.0574
67.4171
67.3724
68.3972
68.4992
68.0574
68.3972
69.1783
67.3724
66.2889
65.2914
66.881
66.2889
65.1231
63.4879
65.2914
66.8824
66.4317
65.1231
66.2889
66.6601
65.7796
65.712
66.5883
66.1883
67.4171
66.8824
66.2889
67.3724
67.0231
66.7976
66.8824
67.4171
66.7976
66.9006
66.4317
66.8824
67.0364
67.0229
66.9006
66.7976
67.42
67.0364
66.7976
67.0231
68.0865
67.5985
68.0574
68.4992
67.5985
67.0231
67.4171
68.0574
68.2925
67.42
67.0231
67.5985
68.8377
68.2925
67.5985
68.0865
70.0944
69.7244
69.8945
70.0217
69.7244
69.5763
69.8126
69.8945
69.4757
68.9826
69.5763
69.7244
70.2365
69.4757
69.7244
70.0944
69.5763
69.5147
69.659
69.8126
69.5147
69.1783
69.1792
69.659
68.7509
68.4992
69.1783
69.5147
68.9826
68.7509
69.5147
69.5763
68.3478
68.27
68.7509
68.9826
68.27
68.0865
68.4992
68.7509
68.8809
68.8377
68.0865
68.27
68.8513
68.8809
68.27
68.3478
69.8563
68.7819
69.4757
70.2365
68.7819
68.3478
68.9826
69.4757
69.3722
68.8513
68.3478
68.7819
70.4696
69.3722
68.7819
69.8563
82.9352
81.3552
82.2355
84.0884
81.3552
77.1927
77.5728
82.2355
79.2928
77.3863
79.9263
81.7972
79.6122
81.2584
77.6139
77.1927
81.3552
79.4515
77.4077
79.2928
81.3087
79.3752
82.5458
81.2584
81.3552
82.9352
77.1927
73.7548
73.7358
77.5728
73.7548
71.265
70.8854
73.7358
74.5638
72.3282
71.265
73.7548
77.6139
74.5638
73.7548
77.1927
78.6522
75.8279
74.5638
77.6139
75.8279
73.6228
72.3282
74.5638
77.2058
74.7804
73.6228
75.8279
80.092
77.2058
75.8279
78.6522
82.9843
81.8846
81.2584
82.5458
81.8846
78.6522
77.6139
81.2584
83.1806
80.092
78.6522
81.8846
84.1597
83.1806
81.8846
82.9843
71.265
69.3614
68.5589
70.8854
69.3614
67.879
66.5028
68.5589
70.6405
69.4341
67.879
69.3614
72.3282
70.6405
69.3614
71.265
67.879
66.7531
64.566
66.5028
67.3222
65.6832
65.5424
67.2087
66.453
66.7531
65.8432
62.5556
64.566
66.3036
64.2299
63.5687
65.6832
64.963
68.7331
68.4571
65.8432
66.7531
68.5994
67.1761
66.3036
67.7645
67.4751
69.4341
68.7331
66.7531
67.879
70.6125
69.9054
68.7331
69.4341
69.9054
69.7049
68.4571
68.7331
70.4208
70.0217
69.7049
69.9054
71.3194
70.4208
69.9054
70.6125
73.6228
71.8777
70.6405
72.3282
71.8777
70.6125
69.4341
70.6405
72.7926
71.3194
70.6125
71.8777
74.7804
72.7926
71.8777
73.6228
75.5595
73.3191
72.7926
74.7804
73.3191
71.729
71.3194
72.7926
73.4796
72.0417
71.729
73.3191
75.7606
73.4796
73.3191
75.5595
71.729
70.7076
70.4208
71.3194
70.7076
70.0944
70.0217
70.4208
71.0472
70.2365
70.0944
70.7076
72.0417
71.0472
70.7076
71.729
71.7277
70.8439
71.0472
72.0417
70.8439
69.8563
70.2365
71.0472
71.5335
70.4696
69.8563
70.8439
72.3704
71.5335
70.8439
71.7277
74.355
72.652
73.4796
75.7606
73.5096
73.0699
74.6302
75.0628
74.0743
72.652
71.7277
72.0417
73.4796
72.7409
72.3704
71.7277
72.652
73.2454
72.7409
72.652
74.355
72.9976
72.6988
73.5096
73.8005
73.2546
86.0839
85.1195
83.1806
84.1597
85.1195
81.7563
80.092
83.1806
87.7623
83.5739
81.7563
85.1195
85.697
82.6747
83.4553
86.4477
84.584
88.7889
87.7623
85.1195
86.0839
81.7563
78.4163
77.2058
80.092
80.1054
77.8198
78.6643
80.9319
79.393
78.4163
75.5595
74.7804
77.2058
77.0041
75.1779
76.0072
77.8198
76.514
79.2058
75.7606
75.5595
78.4163
77.5009
75.666
77.0041
78.8199
77.2599
83.5739
79.2058
78.4163
81.7563
81.4165
78.8199
80.1054
82.6747
80.77
85.2772
78.419
79.2058
83.5739
81.8892
78.8231
81.4165
84.4407
81.6652
83.593
81.7803
83.061
84.8627
83.3304
80.1649
78.6237
80.2528
80.2117
79.0171
80.318
81.544
80.2882
82.5017
84.0111
82.7848
78.419
74.355
75.7606
79.2058
76.4033
75.0628
77.5009
78.8231
76.9597
76.8932
73.2454
74.355
78.419
89.6423
76.8932
78.419
85.2772
83.3379
77.6573
81.8892
87.4749
82.6191
86.5062
85.0594
88.0781
85.7852
86.2702
88.5623
87.1771
84.9262
82.9799
83.8425
84.3862
80.1346
80.1524
81.7408
80.1441
81.3892
81.566
78.5189
78.9085
80.1649
80.1593
81.0297
82.2556
81.2104
79.2947
83.593
86.3799
84.3287
91.8383
90.8265
87.7623
88.7889
90.8265
85.2772
83.5739
87.7623
88.1
84.4407
85.697
89.3054
86.911
93.5595
89.6423
85.2772
90.8265
91.6579
87.4749
88.1
92.1996
89.8894
93.5614
93.5595
90.8265
91.8383
93.5752
92.1996
91.3597
92.7141
92.4774
4.12316
3.98043
4.05602
4.27031
3.98043
3.94121
3.97614
4.05602
5.2512
4.96018
3.94121
3.98043
6.54537
5.2512
3.98043
4.12316
5.90885
4.62336
4.05248
5.36042
4.99684
3.94121
4.7071
4.159
3.97614
4.7071
7.62642
6.41307
4.159
6.22093
7.02543
5.33317
4.43586
5.78137
6.0949
8.973
7.62642
4.7071
4.96018
6.0949
4.7071
3.94121
7.30555
8.15233
6.0949
4.96018
8.15233
10.7078
8.973
6.0949
10.6909
12.7994
10.7078
8.15233
10.0836
10.6909
8.15233
7.30555
10.1227
8.08904
5.2512
6.54537
9.1231
6.70248
5.90885
8.37458
7.5525
8.08904
7.30555
4.96018
5.2512
7.70596
6.15434
5.10796
6.70248
6.43387
11.0354
10.0836
7.30555
8.08904
13.3682
11.0354
8.08904
10.1227
12.2208
9.59243
9.1231
11.7766
10.7024
7.62642
10.9634
9.41004
6.41307
9.34471
10.1938
7.96693
7.02543
8.66196
10.9634
12.9159
11.1027
9.41004
11.964
12.0239
10.2819
10.1938
11.1336
12.3144
14.5469
12.9159
10.9634
13.4555
13.753
11.964
11.6502
12.726
8.973
12.3144
10.9634
7.62642
12.9159
13.68
11.4058
11.1027
13.3211
12.5756
11.2681
12.0239
12.3183
13.68
15.0161
11.9706
11.4058
14.3828
13.5514
11.7116
12.5756
13.0929
15.7617
17.1973
15.0161
13.68
16.508
16.1418
14.3828
14.7535
15.4787
14.5469
15.7617
13.68
12.9159
15.1811
14.7535
13.3211
13.753
14.2782
16.1907
17.5362
15.7617
14.5469
16.8886
16.6745
15.1811
15.3909
16.0585
17.5362
18.6734
17.1973
15.7617
18.9395
19.9452
18.6734
17.5362
17.6433
18.9395
17.5362
16.1907
10.7078
13.8715
12.3144
8.973
13.8715
16.1907
14.5469
12.3144
15.528
17.6433
16.1907
13.8715
12.7994
15.528
13.8715
10.7078
15.1349
17.252
15.528
12.7994
16.2175
16.4091
14.1948
13.9851
15.2245
17.252
18.9687
17.6433
15.528
19.1659
20.275
18.9687
17.252
19.7366
19.6428
18.1297
18.2266
18.9524
17.8081
19.1659
17.252
15.1349
18.5038
18.2266
16.2175
16.4853
17.3761
18.9687
20.1569
18.9395
17.6433
20.1569
21.1379
19.9452
18.9395
21.2319
22.2122
21.1379
20.1569
20.275
21.2319
20.1569
18.9687
21.8457
22.2116
21.2319
20.275
22.0401
21.7389
20.7662
21.0761
21.4195
22.2116
23.1133
22.2122
21.2319
23.5378
24.0377
23.1133
22.2116
24.624
23.5378
22.2116
21.8457
24.0973
22.8863
22.0401
23.2409
23.0773
21.7577
21.8378
19.1659
17.8081
21.8088
20.5111
18.5038
19.7867
20.1622
21.8378
21.8457
20.275
19.1659
21.8581
21.0761
19.7366
20.5111
20.8097
26.5891
24.624
21.8457
21.8378
25.6322
23.2409
21.8581
24.2141
23.7478
28.4368
26.5891
21.8378
21.7577
27.5246
24.2141
21.8088
25.0994
24.6668
16.1731
13.8849
11.0354
13.3682
13.8849
12.9599
10.0836
11.0354
17.3439
16.4586
12.9599
13.8849
19.4542
17.3439
13.8849
16.1731
12.9599
13.4598
10.6909
10.0836
13.4598
15.1349
12.7994
10.6909
16.7176
17.8081
15.1349
13.4598
17.2816
16.4853
14.3233
15.1023
15.8159
16.4586
16.7176
13.4598
12.9599
22.3405
21.8106
16.7176
16.4586
22.0861
19.2691
16.6058
19.4101
19.3531
21.8106
21.7577
17.8081
16.7176
21.7927
19.7867
17.2816
19.2691
19.5408
30.1564
28.4368
21.7577
21.8106
29.2981
25.0994
21.7927
25.9968
25.5519
31.9696
30.1564
21.8106
22.3405
31.0669
25.9968
22.0861
27.1855
26.5975
25.7259
23.5933
17.3439
19.4542
23.5933
22.3405
16.4586
17.3439
22.9801
19.4101
16.9169
20.4835
19.9611
34.0286
31.9696
22.3405
23.5933
33.0095
27.1855
22.9801
28.858
28.0332
36.4781
34.0286
23.5933
25.7259
35.269
28.858
24.6755
31.1602
30.0248
15.0161
15.3184
12.167
11.9706
15.2072
13.8015
12.1161
13.5514
13.7186
15.3184
9.98053
7.63925
12.167
12.8139
8.84014
10.1314
13.8015
11.5133
14.1053
12.1725
12.7039
14.5726
13.4152
11.4403
10.2265
8.94337
10.8339
11.2053
13.0011
11.9685
17.3011
13.1785
9.98053
15.3184
15.3246
11.6106
12.8139
16.3301
14.0897
17.1973
17.3011
15.3184
15.0161
9.98053
1.87751
1.37482
7.63925
6.34678
1.63203
4.9502
8.84014
5.66476
8.23197
7.32469
4.26354
3.8002
3.11756
2.76256
3.3154
2.39108
6.37193
1.87751
1.01202
1.00817
1.37482
1.47808
1.01017
1.21632
1.63203
1.34934
3.61591
1.0222
1.01202
1.87751
2.42269
1.01734
1.47808
2.77311
1.96087
1.75845
1.51118
1.25585
13.1785
3.61591
1.87751
9.98053
8.81031
2.77311
6.34678
11.6106
7.60375
11.0645
9.67589
6.35858
5.33543
5.03158
4.09948
4.26354
3.11756
8.23197
15.4758
5.74244
3.61591
13.1785
10.9683
4.70991
8.81031
14.354
9.91257
13.2872
12.2002
8.47537
7.44165
6.35858
11.0645
5.74244
1.04185
1.0222
3.61591
3.60766
1.03247
2.42269
4.70991
3.02816
4.71002
3.89528
2.4033
2.08625
1.75845
2.72892
3.03719
4.17134
3.47213
7.65399
1.05968
1.04185
5.74244
4.68772
1.05113
3.60766
6.71896
4.15676
6.22239
5.48103
2.99808
2.70458
2.06852
1.9096
2.4033
4.71002
17.0762
7.65399
5.74244
15.4758
12.6678
6.71896
10.9683
16.2938
11.8338
14.9298
14.1248
10.2577
9.38331
8.47537
13.2872
18.6734
18.8548
17.3011
17.1973
18.8548
15.4758
13.1785
17.3011
17.216
14.354
15.3246
18.101
16.2935
20.1545
17.0762
15.4758
18.8548
18.6574
16.2938
17.216
19.5243
17.9551
19.9452
20.1545
18.8548
18.6734
1.01202
1.00052
1.00036
1.00817
1.00052
1.00002
1.00001
1.00036
1.00095
1.00003
1.00002
1.00052
1.0222
1.00095
1.00052
1.01202
1.00002
1
1
1.00001
1
1
1
1
1
1
1
1
1.00003
1
1
1.00002
1.00006
1
1
1.00003
1
1
1
1
1
1
1
1
1.00009
1
1
1.00006
1.04185
1.00171
1.00095
1.0222
1.00171
1.00006
1.00003
1.00095
1.00256
1.00009
1.00006
1.00171
1.05968
1.00256
1.00171
1.04185
1.06632
1.00322
1.00256
1.05968
1.00322
1.00011
1.00009
1.00256
1.00344
1.00011
1.00011
1.00322
1.06734
1.00344
1.00322
1.06632
1.00011
1
1
1.00009
1
1
1
1
1
1
1
1
1.00011
1
1
1.00011
1.0001
1
1
1.00011
1
1
1
1
1
1
1
1
1.00007
1
1
1.0001
1.06071
1.00289
1.00344
1.06734
1.00289
1.0001
1.00011
1.00344
1.00203
1.00007
1.0001
1.00289
1.04658
1.00203
1.00289
1.06071
21.1379
21.2601
20.1545
19.9452
21.2601
18.2991
17.0762
20.1545
22.2995
19.3053
18.2991
21.2601
22.2122
22.2995
21.2601
21.1379
18.2991
9.05359
7.65399
17.0762
13.9473
8.36467
12.6678
17.7013
13.3183
11.585
10.9316
10.2577
15.5651
14.9298
9.05359
1.06632
1.05968
7.65399
5.48113
1.06316
4.68772
8.36467
5.08911
7.33134
6.78459
3.43497
3.2185
2.30271
2.1865
2.99808
2.06852
6.22239
9.3576
1.06734
1.06632
9.05359
5.65147
1.06687
5.48113
9.20842
5.5674