# vtk DataFile Version 2.0

ASCII

DATASET UNSTRUCTURED_GRID
POINTS 27495 float
0 0.96875 116.5
0.03125 0.96875 116.5
0.03125 1 116.5
0 1 116.5
0.03125 0.96875 116.5
0.0625 0.96875 116.5
0.0625 1 116.5
0.03125 1 116.5
0.03125 0.9375 116.5
0.0625 0.9375 116.5
0.0625 0.96875 116.5
0.03125 0.96875 116.5
0 0.9375 116.5
0.03125 0.9375 116.5
0.03125 0.96875 116.5
0 0.96875 116.5
0.0625 0.96875 116.5
0.09375 0.96875 116.5
0.09375 1 116.5
0.0625 1 116.5
0.09375 0.96875 116.5
0.125 0.96875 116.5
0.125 1 116.5
0.09375 1 116.5
0.09375 0.9375 116.5
0.125 0.9375 116.5
0.125 0.96875 116.5
0.09375 0.96875 116.5
0.0625 0.9375 116.5
0.09375 0.9375 116.5
0.09375 0.96875 116.5
0.0625 0.96875 116.5
0.0625 0.90625 116.5
0.09375 0.90625 116.5
0.09375 0.9375 116.5
0.0625 0.9375 116.5
0.09375 0.90625 116.5
0.125 0.90625 116.5
0.125 0.9375 116.5
0.09375 0.9375 116.5
0.09375 0.875 116.5
0.125 0.875 116.5
0.125 0.90625 116.5
0.09375 0.90625 116.5
0.0625 0.875 116.5
0.09375 0.875 116.5
0.09375 0.90625 116.5
0.0625 0.90625 116.5
0 0.90625 116.5
0.03125 0.90625 116.5
0.03125 0.9375 116.5
0 0.9375 116.5
0.03125 0.90625 116.5
0.0625 0.90625 116.5
0.0625 0.9375 116.5
0.03125 0.9375 116.5
0.03125 0.875 116.5
0.0625 0.875 116.5
0.0625 0.90625 116.5
0.03125 0.90625 116.5
0 0.875 116.5
0.03125 0.875 116.5
0.03125 0.90625 116.5
0 0.90625 116.5
0.125 0.96875 116.5
0.15625 0.96875 116.5
0.15625 1 116.5
0.125 1 116.5
0.15625 0.96875 116.5
0.1875 0.96875 116.5
0.1875 1 116.5
0.15625 1 116.5
0.15625 0.9375 116.5
0.1875 0.9375 116.5
0.1875 0.96875 116.5
0.15625 0.96875 116.5
0.125 0.9375 116.5
0.15625 0.9375 116.5
0.15625 0.96875 116.5
0.125 0.96875 116.5
0.1875 0.96875 116.5
0.21875 0.96875 116.5
0.21875 1 116.5
0.1875 1 116.5
0.21875 0.96875 116.5
0.25 0.96875 116.5
0.25 1 116.5
0.21875 1 116.5
0.21875 0.9375 116.5
0.25 0.9375 116.5
0.25 0.96875 116.5
0.21875 0.96875 116.5
0.1875 0.9375 116.5
0.21875 0.9375 116.5
0.21875 0.96875 116.5
0.1875 0.96875 116.5
0.1875 0.90625 116.5
0.21875 0.90625 116.5
0.21875 0.9375 116.5
0.1875 0.9375 116.5
0.21875 0.90625 116.5
0.25 0.90625 116.5
0.25 0.9375 116.5
0.21875 0.9375 116.5
0.21875 0.875 116.5
0.25 0.875 116.5
0.25 0.90625 116.5
0.21875 0.90625 116.5
0.1875 0.875 116.5
0.21875 0.875 116.5
0.21875 0.90625 116.5
0.1875 0.90625 116.5
0.125 0.90625 116.5
0.15625 0.90625 116.5
0.15625 0.9375 116.5
0.125 0.9375 116.5
0.15625 0.90625 116.5
0.1875 0.90625 116.5
0.1875 0.9375 116.5
0.15625 0.9375 116.5
0.15625 0.875 116.5
0.1875 0.875 116.5
0.1875 0.90625 116.5
0.15625 0.90625 116.5
0.125 0.875 116.5
0.15625 0.875 116.5
0.15625 0.90625 116.5
0.125 0.90625 116.5
0.125 0.84375 116.5
0.15625 0.84375 116.5
0.15625 0.875 116.5
0.125 0.875 116.5
0.15625 0.84375 116.5
0.1875 0.84375 116.5
0.1875 0.875 116.5
0.15625 0.875 116.5
0.15625 0.8125 116.5
0.1875 0.8125 116.5
0.1875 0.84375 116.5
0.15625 0.84375 116.5
0.125 0.8125 116.5
0.15625 0.8125 116.5
0.15625 0.84375 116.5
0.125 0.84375 116.5
0.1875 0.84375 116.5
0.21875 0.84375 116.5
0.21875 0.875 116.5
0.1875 0.875 116.5
0.21875 0.84375 116.5
0.25 0.84375 116.5
0.25 0.875 116.5
0.21875 0.875 116.5
0.21875 0.8125 116.5
0.25 0.8125 116.5
0.25 0.84375 116.5
0.21875 0.84375 116.5
0.1875 0.8125 116.5
0.21875 0.8125 116.5
0.21875 0.84375 116.5
0.1875 0.84375 116.5
0.1875 0.78125 116.5
0.21875 0.78125 116.5
0.21875 0.8125 116.5
0.1875 0.8125 116.5
0.21875 0.78125 116.5
0.25 0.78125 116.5
0.25 0.8125 116.5
0.21875 0.8125 116.5
0.21875 0.75 116.5
0.25 0.75 116.5
0.25 0.78125 116.5
0.21875 0.78125 116.5
0.1875 0.75 116.5
0.21875 0.75 116.5
0.21875 0.78125 116.5
0.1875 0.78125 116.5
0.125 0.78125 116.5
0.15625 0.78125 116.5
0.15625 0.8125 116.5
0.125 0.8125 116.5
0.15625 0.78125 116.5
0.1875 0.78125 116.5
0.1875 0.8125 116.5
0.15625 0.8125 116.5
0.15625 0.75 116.5
0.1875 0.75 116.5
0.1875 0.78125 116.5
0.15625 0.78125 116.5
0.125 0.75 116.5
0.15625 0.75 116.5
0.15625 0.78125 116.5
0.125 0.78125 116.5
0 0.84375 116.5
0.03125 0.84375 116.5
0.03125 0.875 116.5
0 0.875 116.5
0.03125 0.84375 116.5
0.0625 0.84375 116.5
0.0625 0.875 116.5
0.03125 0.875 116.5
0.03125 0.8125 116.5
0.0625 0.8125 116.5
0.0625 0.84375 116.5
0.03125 0.84375 116.5
0 0.8125 116.5
0.03125 0.8125 116.5
0.03125 0.84375 116.5
0 0.84375 116.5
0.0625 0.84375 116.5
0.09375 0.84375 116.5
0.09375 0.875 116.5
0.0625 0.875 116.5
0.09375 0.84375 116.5
0.125 0.84375 116.5
0.125 0.875 116.5
0.09375 0.875 116.5
0.09375 0.8125 116.5
0.125 0.8125 116.5
0.125 0.84375 116.5
0.09375 0.84375 116.5
0.0625 0.8125 116.5
0.09375 0.8125 116.5
0.09375 0.84375 116.5
0.0625 0.84375 116.5
0.0625 0.78125 116.5
0.09375 0.78125 116.5
0.09375 0.8125 116.5
0.0625 0.8125 116.5
0.09375 0.78125 116.5
0.125 0.78125 116.5
0.125 0.8125 116.5
0.09375 0.8125 116.5
0.09375 0.75 116.5
0.125 0.75 116.5
0.125 0.78125 116.5
0.09375 0.78125 116.5
0.0625 0.75 116.5
0.09375 0.75 116.5
0.09375 0.78125 116.5
0.0625 0.78125 116.5
0 0.78125 116.5
0.03125 0.78125 116.5
0.03125 0.8125 116.5
0 0.8125 116.5
0.03125 0.78125 116.5
0.0625 0.78125 116.5
0.0625 0.8125 116.5
0.03125 0.8125 116.5
0.03125 0.75 116.5
0.0625 0.75 116.5
0.0625 0.78125 116.5
0.03125 0.78125 116.5
0 0.75 116.5
0.03125 0.75 116.5
0.03125 0.78125 116.5
0 0.78125 116.5
0.25 0.96875 116.5
0.28125 0.96875 116.5
0.28125 1 116.5
0.25 1 116.5
0.28125 0.96875 116.5
0.3125 0.96875 116.5
0.3125 1 116.5
0.28125 1 116.5
0.28125 0.9375 116.5
0.3125 0.9375 116.5
0.3125 0.96875 116.5
0.28125 0.96875 116.5
0.25 0.9375 116.5
0.28125 0.9375 116.5
0.28125 0.96875 116.5
0.25 0.96875 116.5
0.3125 0.96875 116.5
0.34375 0.96875 116.5
0.34375 1 116.5
0.3125 1 116.5
0.34375 0.96875 116.5
0.375 0.96875 116.5
0.375 1 116.5
0.34375 1 116.5
0.34375 0.9375 116.5
0.375 0.9375 116.5
0.375 0.96875 116.5
0.34375 0.96875 116.5
0.3125 0.9375 116.5
0.34375 0.9375 116.5
0.34375 0.96875 116.5
0.3125 0.96875 116.5
0.3125 0.90625 116.5
0.34375 0.90625 116.5
0.34375 0.9375 116.5
0.3125 0.9375 116.5
0.34375 0.90625 116.5
0.375 0.90625 116.5
0.375 0.9375 116.5
0.34375 0.9375 116.5
0.34375 0.875 116.5
0.375 0.875 116.5
0.375 0.90625 116.5
0.34375 0.90625 116.5
0.3125 0.875 116.5
0.34375 0.875 116.5
0.34375 0.90625 116.5
0.3125 0.90625 116.5
0.25 0.90625 116.5
0.28125 0.90625 116.5
0.28125 0.9375 116.5
0.25 0.9375 116.5
0.28125 0.90625 116.5
0.3125 0.90625 116.5
0.3125 0.9375 116.5
0.28125 0.9375 116.5
0.28125 0.875 116.5
0.3125 0.875 116.5
0.3125 0.90625 116.5
0.28125 0.90625 116.5
0.25 0.875 116.5
0.28125 0.875 116.5
0.28125 0.90625 116.5
0.25 0.90625 116.5
0.375 0.96875 116.5
0.40625 0.96875 116.5
0.40625 1 116.5
0.375 1 116.5
0.40625 0.96875 116.5
0.4375 0.96875 116.5
0.4375 1 116.5
0.40625 1 116.5
0.40625 0.9375 116.5
0.4375 0.9375 116.5
0.4375 0.96875 116.5
0.40625 0.96875 116.5
0.375 0.9375 116.5
0.40625 0.9375 116.5
0.40625 0.96875 116.5
0.375 0.96875 116.5
0.4375 0.96875 116.5
0.46875 0.96875 116.5
0.46875 1 116.5
0.4375 1 116.5
0.46875 0.96875 116.5
0.5 0.96875 116.5
0.5 1 116.5
0.46875 1 116.5
0.46875 0.9375 116.5
0.5 0.9375 116.5
0.5 0.96875 116.5
0.46875 0.96875 116.5
0.4375 0.9375 116.5
0.46875 0.9375 116.5
0.46875 0.96875 116.5
0.4375 0.96875 116.5
0.4375 0.90625 116.5
0.46875 0.90625 116.5
0.46875 0.9375 116.5
0.4375 0.9375 116.5
0.46875 0.90625 116.5
0.5 0.90625 116.5
0.5 0.9375 116.5
0.46875 0.9375 116.5
0.46875 0.875 116.5
0.5 0.875 116.5
0.5 0.90625 116.5
0.46875 0.90625 116.5
0.4375 0.875 116.5
0.46875 0.875 116.5
0.46875 0.90625 116.5
0.4375 0.90625 116.5
0.375 0.90625 116.5
0.40625 0.90625 116.5
0.40625 0.9375 116.5
0.375 0.9375 116.5
0.40625 0.90625 116.5
0.4375 0.90625 116.5
0.4375 0.9375 116.5
0.40625 0.9375 116.5
0.40625 0.875 116.5
0.4375 0.875 116.5
0.4375 0.90625 116.5
0.40625 0.90625 116.5
0.375 0.875 116.5
0.40625 0.875 116.5
0.40625 0.90625 116.5
0.375 0.90625 116.5
0.375 0.84375 116.5
0.40625 0.84375 116.5
0.40625 0.875 116.5
0.375 0.875 116.5
0.40625 0.84375 116.5
0.4375 0.84375 116.5
0.4375 0.875 116.5
0.40625 0.875 116.5
0.40625 0.8125 116.5
0.4375 0.8125 116.5
0.4375 0.84375 116.5
0.40625 0.84375 116.5
0.375 0.8125 116.5
0.40625 0.8125 116.5
0.40625 0.84375 116.5
0.375 0.84375 116.5
0.4375 0.84375 116.5
0.46875 0.84375 116.5
0.46875 0.875 116.5
0.4375 0.875 116.5
0.46875 0.84375 116.5
0.5 0.84375 116.5
0.5 0.875 116.5
0.46875 0.875 116.5
0.46875 0.8125 116.5
0.5 0.8125 116.5
0.5 0.84375 116.5
0.46875 0.84375 116.5
0.4375 0.8125 116.5
0.46875 0.8125 116.5
0.46875 0.84375 116.5
0.4375 0.84375 116.5
0.4375 0.78125 116.5
0.46875 0.78125 116.5
0.46875 0.8125 116.5
0.4375 0.8125 116.5
0.46875 0.78125 116.5
0.5 0.78125 116.5
0.5 0.8125 116.5
0.46875 0.8125 116.5
0.46875 0.75 116.5
0.5 0.75 116.5
0.5 0.78125 116.5
0.46875 0.78125 116.5
0.4375 0.75 116.5
0.46875 0.75 116.5
0.46875 0.78125 116.5
0.4375 0.78125 116.5
0.375 0.78125 116.5
0.40625 0.78125 116.5
0.40625 0.8125 116.5
0.375 0.8125 116.5
0.40625 0.78125 116.5
0.4375 0.78125 116.5
0.4375 0.8125 116.5
0.40625 0.8125 116.5
0.40625 0.75 116.5
0.4375 0.75 116.5
0.4375 0.78125 116.5
0.40625 0.78125 116.5
0.375 0.75 116.5
0.40625 0.75 116.5
0.40625 0.78125 116.5
0.375 0.78125 116.5
0.25 0.84375 116.5
0.28125 0.84375 116.5
0.28125 0.875 116.5
0.25 0.875 116.5
0.28125 0.84375 116.5
0.3125 0.84375 116.5
0.3125 0.875 116.5
0.28125 0.875 116.5
0.28125 0.8125 116.5
0.3125 0.8125 116.5
0.3125 0.84375 116.5
0.28125 0.84375 116.5
0.25 0.8125 116.5
0.28125 0.8125 116.5
0.28125 0.84375 116.5
0.25 0.84375 116.5
0.3125 0.84375 116.5
0.34375 0.84375 116.5
0.34375 0.875 116.5
0.3125 0.875 116.5
0.34375 0.84375 116.5
0.375 0.84375 116.5
0.375 0.875 116.5
0.34375 0.875 116.5
0.34375 0.8125 116.5
0.375 0.8125 116.5
0.375 0.84375 116.5
0.34375 0.84375 116.5
0.3125 0.8125 116.5
0.34375 0.8125 116.5
0.34375 0.84375 116.5
0.3125 0.84375 116.5
0.3125 0.78125 116.5
0.34375 0.78125 116.5
0.34375 0.8125 116.5
0.3125 0.8125 116.5
0.34375 0.78125 116.5
0.375 0.78125 116.5
0.375 0.8125 116.5
0.34375 0.8125 116.5
0.34375 0.75 116.5
0.375 0.75 116.5
0.375 0.78125 116.5
0.34375 0.78125 116.5
0.3125 0.75 116.5
0.34375 0.75 116.5
0.34375 0.78125 116.5
0.3125 0.78125 116.5
0.25 0.78125 116.5
[...]
POINT_DATA 27495
SCALARS "pressure" float 1
LOOKUP_TABLE default
116.5
116.5
116.5
116.5
116.5
116.5
116.5
116.5
116.5
116.5
116.5
116.5
116.5
116.5
116.5
116.5
116.5
116.5
116.5
116.5
116.5
116.5
116.5
116.5
116.5
116.5
116.5
116.5
116.5
116.5
116.5
116.5
116.5
116.5
116.5
116.5
116.5
116.5
116.5
116.5
116.5
116.5
116.5
116.5
116.5
116.5
116.5
116.5
116.5
116.5
116.5
116.5
116.5
116.5
116.5
116.5
116.5
116.5
116.5
116.5
116.5
116.5
116.5
116.5
116.5
116.5
116.5
116.5
116.5
116.5
116.5
116.5
116.5
116.5
116.5
116.5
116.5
116.5
116.5
116.5
116.5
116.5
116.5
116.5
116.5
116.5
116.5
116.5
116.5
116.5
116.5
116.5
116.5
116.5
116.5
116.5
116.5
116.5
116.5
116.5
116.5
116.5
116.5
116.5
116.5
116.5
116.5
116.5
116.5
116.5
116.5
116.5
116.5
116.5
116.5
116.5
116.5
116.5
116.5
116.5
116.5
116.5
116.5
116.5
116.5
116.5
116.5
116.5
116.5
116.5
116.5
116.5
116.5
116.5
116.5
116.5
116.5
116.5
116.5
116.5
116.5
116.5
116.5
116.5
116.5
116.5
116.5
116.5
116.5
116.5
116.5
116.5
116.5
116.5
116.5
116.5
116.5
116.5
116.5
116.5
116.5
116.5
116.5
116.5
116.5
116.5
116.5
116.5
116.5
116.5
116.5
116.5
116.5
116.5
116.5
116.5
116.5
116.5
116.5
116.5
116.5
116.5
116.5
116.5
116.5
116.5
116.5
116.5
116.5
116.5
116.5
116.5
116.5
116.5
116.5
116.5
116.5
116.5
116.5
116.5
116.5
116.5
116.5
116.5
116.5
116.5
116.5
116.5
116.5
116.5
116.5
116.5
116.5
116.5
116.5
116.5
116.5
116.5
116.5
116.5
116.5
116.5
116.5
116.5
116.5
116.5
116.5
116.5
116.5
116.5
116.5
116.5
116.5
116.5
116.5
116.5
116.5
116.5
116.5
116.5
116.5
116.5
116.5
116.5
116.5
116.5
116.5
116.5
116.5
116.5
116.5
116.5
116.5
116.5
116.5
116.5
116.5
116.5
116.5
116.5
116.5
116.5
116.5
116.5
116.5
116.5
116.5
116.5
116.5
116.5
116.5
116.5
116.5
116.5
116.5
116.5
116.5
116.5
116.5
116.5
116.5
116.5
116.5
116.5
116.5
116.5
116.5
116.5
116.5
116.5
116.5
116.5
116.5
116.5
116.5
116.5
116.5
116.5
116.5
116.5
116.5
116.5
116.5
116.5
116.5
116.5
116.5
116.5
116.5
116.5
116.5
116.5
116.5
116.5
116.5
116.5
116.5
116.5
116.5
116.5
116.5
116.5
116.5
116.5
116.5
116.5
116.5
116.5
116.5
116.5
116.5
116.5
116.5
116.5
116.5
116.5
116.5
116.5
116.5
116.5
116.5
116.5
116.5
116.5
116.5
116.5
116.5
116.5
116.5
116.5
116.5
116.5
116.5
116.5
116.5
116.5
116.5
116.5
116.5
116.5
116.5
116.5
116.5
116.5
116.5
116.5
116.5
116.5
116.5
116.5
116.5
116.5
116.5
116.5
116.5
116.5
116.5
116.5
116.5
116.5
116.5
116.5
116.5
116.5
116.5
116.5
116.5
116.5
116.5
116.5
116.5
116.5
116.5
116.5
116.5
116.5
116.5
116.5
116.5
116.5
116.5
116.5
116.5
116.5
116.5
116.5
116.5
116.5
116.5
116.5
116.5
116.5
116.5
116.5
116.5
116.5
116.5
116.5
116.5
116.5
116.5
116.5
116.5
116.5
116.5
116.5
116.5
116.5
116.5
116.5
116.5
116.5
116.5
116.5
116.5
116.5
116.5
116.5
116.5
116.5
116.5
116.5
116.5
116.5
116.5
116.5
116.5
116.5
116.5
116.5
116.5
116.5
116.5
116.5
116.5
116.5
116.5
116.5
116.5
116.5
116.5
116.5
116.5
116.5
116.5
116.5
116.5
116.5
116.5
116.5
116.5
116.5
116.5
116.5
116.5
116.5
116.5
116.5
116.5
116.5
116.5
116.5
116.5
116.5
116.5
116.5
116.5
116.5
116.5
116.5
116.5
116.5
116.5
116.5
116.5
116.5
116.5
116.5
116.5
116.5
116.5
116.5
116.5
116.5
116.5
116.5
116.5
116.5
116.5
116.5
116.5
116.5
116.5
116.5
116.5
116.5
116.5
116.5
116.5
116.5
116.5
116.5
116.5
116.5
116.5
116.5
116.5
116.5
116.5
116.5
116.5
116.5
116.5
116.5
116.5
116.5
116.5
116.5
116.5
116.5
116.5
116.5
116.5
116.5
116.5
116.5
116.5
116.5
116.5
116.5
116.5
116.5
116.5
116.5
116.5
116.5
116.5
116.5
116.5
116.5
116.5
116.5
116.5
116.5
116.5
116.5
116.5
116.5
116.5
116.5
116.5
116.5
116.5
116.5
116.5
116.5
116.5
116.5
116.5
116.5
116.5
116.5
116.5
116.5
116.5
116.5
116.5
116.5
116.5
116.5
116.5
116.5
116.5
116.5
116.5
116.5
116.5
116.5
116.5
116.5
116.5
116.5
116.5
116.5
116.5
116.5
116.5
116.5
116.5
116.5
116.5
116.5
116.5
116.5
116.5
116.5
116.5
116.5
116.5
116.5
116.5
116.5
116.5
116.5
116.5
116.5
116.5
116.5
116.5
116.5
116.5
116.5
116.5
116.5
116.5
116.5
116.5
116.5
116.5
116.5
116.5
116.5
116.5
116.5
116.5
116.5
116.5
116.5
116.5
116.5
116.5
116.5
116.5
116.5
116.5
116.5
116.5
116.5
116.5
116.5
116.5
116.5
116.5
116.5
116.5
116.5
116.5
116.5
116.5
116.5
116.5
116.5
116.5
116.5
116.5
116.5
116.5
116.501
116.5
116.5
116.501
116.501
116.501
116.5
116.501
116.501
116.5
116.5
116.5
116.5
116.5
116.5
116.5
116.5
116.5
116.5
116.5
116.501
116.5
116.5
116.5
116.5
116.5
116.5
116.5
116.5
116.5
116.5
116.5
116.5
116.5
116.5
116.5
116.5
116.5
116.5
116.5
116.5
116.5
116.5
116.5
116.5
116.5
116.5
116.5
116.5
116.5
116.5
116.5
116.5
116.5
116.5
116.5
116.5
116.5
116.5
116.5
116.5
116.5
116.5
116.5
116.5
116.5
116.5
116.5
116.5
116.5
116.5
116.5
116.5
116.5
116.5
116.5
116.5
116.5
116.5
116.5
116.5
116.5
116.5
116.5
116.5
116.5
116.5
116.5
116.5
116.5
116.5
116.5
116.5
116.5
116.5
116.5
116.5
116.5
116.5
116.5
116.5
116.5
116.5
116.5
116.5
116.5
116.5
116.5
116.5
116.5
116.5
116.5
116.5
116.5
116.5
116.5
116.5
116.5
116.5
116.5
116.5
116.5
116.5
116.5
116.5
116.5
116.5
116.5
116.5
116.5
116.5
116.5
116.5
116.5
116.5
116.5
116.5
116.5
116.5
116.5
116.5
116.5
116.5
116.5
116.5
116.5
116.5
116.5
116.5
116.5
116.5
116.5
116.5
116.5
116.5
116.5
116.5
116.5
116.5
116.5
116.5
116.5
116.5
116.5
116.5
116.5
116.5
116.5
116.5
116.5
116.5
116.5
116.5
116.5
116.5
116.5
116.5
116.5
116.5
116.5
116.5
116.5
116.5
116.5
116.5
116.5
116.5
116.5
116.5
116.5
116.5
116.5
116.5
116.5
116.5
116.5
116.5
116.5
116.5
116.5
116.5
116.5
116.5
116.5
116.5
116.5
116.5
116.5
116.5
116.5
116.5
116.5
116.5
116.5
116.5
116.5
116.5
116.5
116.5
116.5
116.5
116.5
116.5
116.5
116.5
116.5
116.5
116.5
116.5
116.5
116.5
116.5
116.5
116.5
116.5
116.5
116.5
116.5
116.5
116.5
116.5
116.5
116.5
116.5
116.5
116.5
116.5
116.5
116.5
116.5
116.5
116.5
116.5
116.5
116.5
116.5
116.5
116.5
116.5
116.5
116.5
116.5
116.5
116.5
116.5
116.5
116.5
116.5
116.5
116.5
116.5
116.5
116.5
116.5
116.5
116.5
116.5
116.5
116.5
116.5
116.5
116.5
116.5
116.5
116.5
116.5
116.5
116.5
116.5
116.5
116.5
116.5
116.5
116.5
116.5
116.5
116.5
116.5
116.5
116.5
116.5
116.5
116.5
116.5
116.5
116.5
116.5
116.5
116.5
116.5
116.5
116.5
116.5
116.5
116.5
116.5
116.5
116.5
116.5
116.5
116.5
116.5
116.5
116.5
116.5
116.5
116.5
116.5
116.5
116.5
116.5
116.5
116.5
116.5
116.5
116.5
116.5
116.5
116.5
116.5
116.5
116.5
116.5
116.5
116.5
116.5
116.5
116.5
116.5
116.5
116.5
116.5
116.5
116.5
116.5
116.5
116.5
116.5
116.5
116.5
116.5
116.5
116.5
116.5
116.5
116.5
116.5
116.5
116.5
116.5
116.5
116.5
116.5
116.5
116.5
116.5
116.5
116.5
116.5
116.5
116.5
116.5
116.5
116.5
116.5
116.5
116.5
116.5
116.5
116.5
116.5
116.5
116.5
116.5
116.5
116.5
116.5
116.5
116.5
116.5
116.5
116.5
116.5
116.5
116.5
116.5
116.5
116.5
116.5
116.5
116.5
116.5
116.5
116.5
116.5
116.5
116.5
116.5
116.5
116.5
116.5
116.5
116.5
116.5
116.5
116.5
116.5
116.5
116.5
116.5
116.5
116.5
116.5
116.5
116.5
116.5
116.5
116.5
116.5
116.5
116.5
116.5
116.5
116.5
116.5
116.5
116.5
116.5
116.5
116.5
116.5
116.5
116.5
116.5
116.5
116.5
116.5
116.5
116.5
116.5
116.5
116.5
116.5
116.5
116.5
116.5
116.5
116.5
116.5
116.5
116.5
116.5
116.5
116.5
116.5
116.5
116.5
116.5
116.5
116.5
116.5
116.5
116.5
116.5
116.5
116.5
116.5
116.5
116.5
116.5
116.5
116.5
116.5
116.5
116.5
116.5
116.5
116.5
116.5
116.5
116.5
116.5
116.5
116.5
116.5
116.5
116.5
116.5
116.5
116.5
116.5
116.5
116.5
116.5
116.5
116.5
116.5
116.5
116.5
116.5
116.5
116.5
116.5
116.5
116.5
116.5
116.5
116.5
116.5
116.5
116.5
116.5
116.5
116.5
116.5
116.5
116.5
116.5
116.5
116.5
116.5
116.5
116.5
116.5
116.5
116.5
116.5
116.5
116.5
116.5
116.5
116.5
116.5
116.5
116.5
116.5
116.5
116.5
116.5
116.5
116.5
116.5
116.5
116.5
116.5
116.5
116.5
116.5
116.5
116.5
116.5
116.5
116.5
116.5
116.5
116.5
116.5
116.5
116.5
116.5
116.5
116.5
116.5
116.5
116.5
116.5
116.5
116.5
116.5
116.5
116.5
116.5
116.5
116.5
116.5
116.5
116.5
116.5
116.5
116.5
116.5
116.5
116.5
116.5
116.5
116.5
116.5
116.5
116.5
116.5
116.5
116.5
116.5
116.5
116.5
116.5
116.5
116.5
116.5
116.5
116.5
116.5
116.5
116.5
116.5
116.5
116.5
116.5
116.5
116.5
116.5
116.5
116.5
116.5
116.5
116.5
116.5
116.5
116.5
116.5
116.5
116.5
116.5
116.5
116.5
116.5
116.5
116.5
116.5
116.5
116.5
116.5
116.5
116.5
116.5
116.5
116.5
116.5
116.5
116.5
116.5
116.5
116.5
116.5
116.5
116.5
116.5
116.5
116.5
116.5
116.5
116.5
116.5
116.5
116.5
116.5
116.5
116.5
116.5
116.5
116.5
116.5
116.5
116.5
116.5
116.5
116.5
116.5
116.5
116.5
116.5
116.5
116.5
116.5
116.5
116.5
116.5
116.5
116.5
116.5
116.5
116.5
116.5
116.5
116.5
116.5
116.5
116.5
116.5
116.5
116.5
116.5
116.5
116.5
116.5
116.5
116.5
116.5
116.5
116.5
116.5
116.5
116.5
116.5
116.5
116.5
116.5
116.5
116.5
116.5
116.5
116.5
116.5
116.5
116.5
116.5
116.5
116.5
116.5
116.5
116.5
116.5
116.5
116.5
116.5
116.5
116.5
116.5
116.5
116.5
116.5
116.5
116.5
116.5
116.5
116.5
116.5
116.5
116.5
116.5
116.5
116.5
116.5
116.5
116.5
116.5
116.5
116.5
116.5
116.5
116.5
116.5
116.5
116.5
116.5
116.5
116.5
116.5
116.5
116.5
116.5
116.5
116.5
116.5
116.5
116.5
116.5
116.5
116.5
116.5
116.5
116.5
116.5
116.5
116.5
116.5
116.5
116.5
116.5
116.5
116.5
116.5
116.5
116.5
116.5
116.5
116.5
116.5
116.5
116.5
116.5
116.5
116.5
116.5
116.5
116.5
116.5
116.5
116.5
116.5
116.5
116.5
116.5
116.5
116.5
116.5
116.5
116.5
116.5
116.5
116.5
116.5
116.5
116.5
116.5
116.5
116.5
116.5
116.5
116.5
116.5
116.5
116.5
116.5
116.5
116.5
116.5
116.5
116.5
116.5
116.5
116.5
116.5
116.5
116.5
116.5
116.5
116.5
116.5
116.5
116.5
116.5
116.5
116.5
116.5
116.5
116.5
116.5
116.5
116.5
116.5
116.5
116.5
116.5
116.5
116.5
116.5
116.5
116.5
116.5
116.5
116.5
116.5
116.5
116.501
116.5
116.5
116.5
116.5
116.5
116.5
116.501
116.501
116.5
116.5
116.501
116.501
116.501
116.5
116.501
116.501
116.501
116.501
116.501
116.501
116.501
116.501
116.5
116.501
116.5
116.5
116.501
116.501
116.5
116.5
116.501
116.501
116.501
116.501
116.501
116.501
116.501
116.5
116.5
116.5
116.5
116.5
116.5
116.5
116.5
116.5
116.501
116.501
116.5
116.5
116.501
116.501
116.5
116.5
116.5
116.5
116.5
116.5
116.5
116.501
116.5
116.5
116.501
116.501
116.501
116.5
116.501
116.501
116.5
116.5
116.502
116.502
116.501
116.501
116.502
116.502
116.501
116.501
116.501
116.501
116.502
116.502
116.502
116.501
116.502
116.502
116.501
116.501
116.501
116.501
116.501
116.502
116.501
116.501
116.502
116.502
116.502
116.501
116.501
116.502
116.501
116.501
116.497
116.467
116.502
116.501
116.467
116.42
116.502
116.502
115.974
115.817
116.42
116.467
116.155
115.974
116.467
116.497
116.42
116.352
116.501
116.502
116.352
116.228
116.501
116.501
115.646
115.437
116.228
116.352
115.817
115.646
116.352
116.42
115.34
115.326
115.646
115.817
115.326
115.286
115.437
115.646
115.372
116.292
115.286
115.326
115.832
115.789
115.306
115.349
115.569
115.36
115.372
115.326
115.34
115.71
115.566
115.974
116.155
115.566
115.34
115.817
115.974
115.353
115.36
115.34
115.566
115.567
115.353
115.566
115.71
116.501
116.501
116.501
116.501
116.501
116.501
116.501
116.501
116.469
116.424
116.501
116.501
116.496
116.469
116.501
116.501
116.501
116.501
116.501
116.501
116.501
116.497
116.501
116.501
116.321
116.155
116.497
116.501
116.424
116.321
116.501
116.501
115.958
115.811
116.321
116.424
115.811
115.71
116.155
116.321
115.625
115.567
115.71
115.811
115.633
115.625
115.811
115.958
116.235
116.102
116.469
116.496
116.102
115.958
116.424
116.469
115.765
115.633
115.958
116.102
115.923
115.765
116.102
116.235
116.5
116.5
116.5
116.5
116.5
116.5
116.5
116.5
116.5
116.5
116.5
116.5
116.5
116.5
116.5
116.5
116.5
116.5
116.5
116.5
116.5
116.5
116.5
116.5
116.5
116.5
116.5
116.5
116.5
116.5
116.5
116.5
116.5
116.5
116.5
116.5
116.5
116.5
116.5
116.5
116.5
116.5
116.5
116.5
116.5
116.5
116.5
116.5
116.5
116.5
116.5
116.5
116.5
116.5
116.5
116.5
116.5
116.5
116.5
116.5
116.5
116.5
116.5
116.5
116.5
116.5
116.5
116.5
116.5
116.5
116.5
116.5
116.5
116.5
116.5
116.5
116.5
116.5
116.5
116.5
116.5
116.5
116.5
116.5
116.5
116.5
116.5
116.5
116.5
116.5
116.5
116.5
116.5
116.5
116.5
116.5
116.5
116.5
116.5
116.5
116.5
116.5
116.5
116.5
116.501
116.501
116.5
116.5
116.501
116.501
116.5
116.5
116.5
116.5
116.5
116.5
116.5
116.5
116.5
116.5
116.5
116.501
116.5
116.5
116.5
116.5
116.5
116.5
116.501
116.501
116.5
116.5
116.501
116.501
116.501
116.5
116.501
116.501
116.501
116.501
116.501
116.501
116.501
116.501
116.501
116.501
116.501
116.501
116.501
116.501
116.501
116.501
116.501
116.496
116.501
116.501
116.501
116.501
116.501
116.501
116.46
116.369
116.501
116.501
116.369
116.235
116.496
116.501
115.983
115.923
116.235
116.369
116.126
115.983
116.369
116.46
116.501
116.493
116.501
116.501
116.493
116.46
116.501
116.501
116.249
116.126
116.46
116.493
116.379
116.249
116.493
116.501
116.5
116.5
116.5
116.5
116.5
116.5
116.5
116.5
116.5
116.501
116.5
116.5
116.5
116.5
116.5
116.5
116.5
116.5
116.5
116.5
116.5
116.501
116.5
116.5
116.501
116.501
116.501
116.5
116.501
116.501
116.5
116.5
116.501
116.501
116.501
116.501
116.501
116.501
116.501
116.501
116.468
116.379
116.501
116.501
116.499
116.468
116.501
116.501
116.501
116.501
116.5
116.5
116.501
116.501
116.501
116.5
116.501
116.499
116.501
116.501
116.501
116.501
116.501
116.501
116.49
116.423
116.501
116.501
116.423
116.309
116.499
116.501
116.133
116.062
116.309
116.423
116.27
116.133
116.423
116.49
116.309
116.196
116.468
116.499
116.196
116.045
116.379
116.468
115.904
115.84
116.045
116.196
116.062
115.904
116.196
116.309
115.842
115.848
115.904
116.062
115.848
115.858
115.84
115.904
116.218
135.729
115.858
115.848
126.084
125.903
115.853
116.033
120.998
121.181
118.523
118.707
117.28
117.464
117.994
116.657
116.126
117.061
119.946
119.854
117.902
118.925
123.639
123.548
119.762
121.705
130.932
130.841
123.458
127.21
128.515
129.074
125.383
124.817
126.951
133.337
133.291
129.029
131.188
128.379
124.682
125.337
126.861
122.23
122.275
123.809
120.91
118.433
123.414
119.674
119.717
121.57
118.392
117.145
119.653
117.769
117.79
118.722
117.127
116.499
115.85
115.941
117.189
117.857
116.565
115.987
116.923
117.811
118.788
116.52
115.849
115.894
116.207
115.876
116.218
115.848
115.842
116.038
115.851
116.133
116.27
115.851
115.842
116.062
116.133
115.858
115.876
115.842
115.851
115.846
115.858
115.851
116.038
116.045
115.984
116.249
116.379
115.984
115.814
116.126
116.249
115.821
115.82
115.814
115.984
115.84
115.821
115.984
116.045
115.814
115.808
115.983
116.126
115.808
115.776
115.923
115.983
115.831
115.884
115.776
115.808
115.82
115.831
115.808
115.814
122.193
143.494
115.831
115.82
132.968
129.87
115.826
119.017
124.479
127.614
128.742
121.757
120.608
124.695
124.912
126.157
122.656
121.401
123.786
130.299
130.86
126.723
128.515
126.616
123.12
123.228
124.925
120.39
119.813
121.524
138.26
136.728
127.183
132.753
135.622
135.514
130.752
133.193
140.884
140.122
134.745
137.824
133.312
128.529
129.976
131.647
125.833
128.299
122.909
120.174
126.403
121.544
122.332
124.372
119.385
118.006
121.151
118.696
119.092
120.122
117.612
116.917
115.823
117.421
118.8
120.281
118.111
118.22
119.252
119.488
121.308
117.314
116.621
143.494
175.467
115.884
115.831
159.725
146.57
115.858
129.87
138.298
151.676
149.119
134.104
136.728
142.965
147.603
147.338
139.858
140.122
143.744
155.717
154.447
146.052
150.906
143.737
136.206
138.555
141.153
131.993
133.312
135.941
167.652
161.201
142.452
155.196
163.703
161.457
152.167
157.964
171.573
168.376
158.207
164.927
153.936
148.863
157.58
151.406
152.039
154.817
150.266
144.516
145.668
147.972
140.38
146.307
131.497
127.225
139.095
129.367
132.795
135.956
139.215
134.378
135.555
137.389
142.847
137.528
141.035
135.312
132.673
130.019
123.765
121.581
127.649
122.675
124.413
126.034
119.844
118.73
121.81
119.287
120.158
120.985
117.869
117.296
122.909
125.073
126.403
129.611
131.863
128.01
128.14
130.006
131.206
133.713
126.15
127.348
128.686
123.992
124.66
126.006
119.385
120.485
121.151
122.785
117.612
252.796
286.635
175.467
143.494
269.879
233.084
159.725
200.438
216.947
243.825
227.051
261.381
256.943
235.484
240.019
248.526
230.501
208.742
213.866
222.232
260.255
278.295
273.533
252.08
265.277
246.78
225.058
238.682
204.916
189.019
219.14
197.016
203.131
211.181
190.374
167.652
174.567
182.522
172.705
180.919
186.731
194.984
151.676
158.313
166.501
212.273
252.796
143.494
122.193
232.802
200.438
132.968
169.056
184.947
209.267
191.015
222.61
221.122
200.205
201.721
211.49
197.217
177.056
180.134
188.734
227.051
242.86
240.019
218.213
230.628
213.866
192.738
205.592
172.705
159.618
186.731
166.199
172.426
179.62
158.313
146.483
165.558
152.431
153.095
159.362
150.961
138.26
139.777
145.4
146.206
152.956
157.757
165.14
127.614
134.365
140.463
115.858
115.909
115.821
115.84
115.909
122.193
115.82
115.821
119.062
119.017
115.82
115.865
117.444
170.314
212.273
122.193
115.909
191.642
169.056
119.062
143.868
156.614
181.074
174.379
150.282
157.248
165.881
175.72
173.524
161.582
163.817
168.692
186.381
183.067
170.146
178.315
165.566
153.458
158.137
161.865
147.086
150.601
154.383
191.015
202.036
201.721
182.754
192.462
180.134
162.871
172.896
146.206
138.228
157.757
142.233
147.508
152.658
134.365
128.755
140.324
131.568
133.517
136.933
128.324
123.937
130.115
134.19
137.043
142.304
123.074
125.924
126.609
130.077
117.488
119.508
121.728
135.729
170.314
115.909
115.858
153.316
143.868
115.884
125.903
134.976
144.604
144.228
130.464
130.841
137.584
140.188
141.106
134.225
133.291
137.215
148.979
148.791
140.918
144.964
139.624
132.726
134.037
136.839
128.19
128.379
131.217
161.881
157.248
139.444
150.78
157.616
156.358
147.515
152.588
166.113
163.817
154.024
160.1
150.601
141.661
145.143
147.88
137.216
142.392
130.115
125.538
137.043
127.833
130.282
133.675
123.074
120.74
126.609
121.909
123.146
124.881
119.508
118.319
120.91
123.231
123.414
126.862
118.392
119.568
119.653
121.403
117.127
243.414
286.765
170.314
135.729
265.36
230.799
153.316
191.897
211.617
238.923
218.094
254.46
252.238
228.581
230.851
241.617
225.392
201.831
205.119
215.329
259.217
276.125
273.088
249.131
262.724
245.13
221.27
235.322
201.276
183.198
216.194
192.3
197.566
206.942
186.001
161.881
168.467
177.298
164.565
173.957
178.392
188.054
144.604
150.364
159.494
286.765
317.612
212.273
170.314
302.308
266.534
191.642
230.799
248.856
275.954
259.217
292.395
239.888
220.834
257.739
253.319
230.419
234.975
244.197
226.215
202.036
206.403
216.376
201.276
239.879
211.124
216.194
225.643
181.074
186.001
196.283
351.031
349.635
317.612
286.765
350.336
333.752
302.308
319.402
326.603
338.534
335.33
344.451
343.207
332.586
327.396
341.724
345.687
340.131
337.746
330.184
335.17
325.716
309.988
314.532
320.139
303.224
323.009
320.586
308.894
311.346
315.977
308.44
294.568
295.032
301.759
338.307
351.031
286.765
243.414
344.692
319.402
265.36
292.047
305.817
325.426
315.426
335.099
326.924
320.438
315.667
298.956
303.803
309.753
335.33
347.867
343.207
330.389
339.161
327.396
312.632
321.548
303.224
276.125
285.815
294.557
290.196
285.389
270.758
275.648
280.531
268.081
295.868
276.991
280.143
288.039
254.46
255.843
265.802
317.612
335.551
252.796
212.273
326.623
295.067
232.802
266.534
280.909
304.015
292.395
322.128
315.376
298.222
305.076
310.24
292.529
273.75
279.553
286.064
315.501
331.097
325.571
309.774
320.486
305.335
288.013
298.953
274.189
257.21
284.688
265.74
269.14
276.946
263.562
242.86
245.103
254.382
239.888
248.595
253.319
261.266
222.61
226.215
235.717
335.551
342.779
286.635
252.796
339.176
315.1
269.879
295.067
305.135
322.29
315.501
330.764
325.571
318.901
313.748
300.114
305.335
309.551
329.028
335.925
325.665
322.087
310.13
317.927
300.975
287.678
308.063
294.35
296.447
302.272
293.834
278.295
278.824
286.359
274.189
280.959
284.688
290.586
261.381
263.562
271.227
346.19
338.848
342.779
335.551
342.527
340.813
339.176
340.89
340.856
344.36
341.692
340.874
343.545
342.62
340.689
339.831
340.835
340.763
341.796
340.98
340.017
340.908
337.366
338.226
339.123
349.635
346.19
335.551
317.612
347.915
340.89
326.623
333.752
337.33
342.638
341.724
345.28
345.687
342.182
339.988
335.544
337.746
338.868
343.545
347.054
344.869
343.092
345.075
342.218
339.112
341.104
338.226
331.097
331.992
335.114
322.128
325.716
328.86
341.059
333.302
346.19
349.635
337.188