# vtk DataFile Version 2.0

ASCII

DATASET UNSTRUCTURED_GRID
POINTS 5969 float
0 0.9375 7.51363
0.0625 0.9375 7.39617
0.0625 1 7.52287
0 1 7.52287
0.03125 0.9375 7.4549
0.0625 0.96875 7.45952
0.03125 1 7.52287
0 0.96875 7.51825
0.03125 0.96875 7.48889
0.0625 0.9375 7.39617
0.125 0.9375 7.13606
0.125 1 7.27453
0.0625 1 7.52287
0.0625 0.875 7.14362
0.125 0.875 6.88207
0.125 0.9375 7.13606
0.0625 0.9375 7.39617
0 0.875 7.26722
0.0625 0.875 7.14362
0.0625 0.9375 7.39617
0 0.9375 7.51363
0.125 0.9375 7.13606
0.1875 0.9375 6.93451
0.1875 1 7.06589
0.125 1 7.27453
0.1875 0.9375 6.93451
0.25 0.9375 6.74932
0.25 1 6.87149
0.1875 1 7.06589
0.1875 0.875 6.6745
0.25 0.875 6.4868
0.25 0.9375 6.74932
0.1875 0.9375 6.93451
0.125 0.875 6.88207
0.1875 0.875 6.6745
0.1875 0.9375 6.93451
0.125 0.9375 7.13606
0.125 0.8125 6.68292
0.1875 0.8125 6.46468
0.1875 0.875 6.6745
0.125 0.875 6.88207
0.1875 0.8125 6.46468
0.25 0.8125 6.27187
0.25 0.875 6.4868
0.1875 0.875 6.6745
0.1875 0.75 6.26988
0.25 0.75 6.076
0.25 0.8125 6.27187
0.1875 0.8125 6.46468
0.125 0.75 6.49537
0.1875 0.75 6.26988
0.1875 0.8125 6.46468
0.125 0.8125 6.68292
0 0.8125 7.07546
0.0625 0.8125 6.95408
0.0625 0.875 7.14362
0 0.875 7.26722
0.0625 0.8125 6.95408
0.125 0.8125 6.68292
0.125 0.875 6.88207
0.0625 0.875 7.14362
0.0625 0.75 6.77325
0.125 0.75 6.49537
0.125 0.8125 6.68292
0.0625 0.8125 6.95408
0 0.75 6.89288
0.0625 0.75 6.77325
0.0625 0.8125 6.95408
0 0.8125 7.07546
0.25 0.9375 6.74932
0.3125 0.9375 6.56237
0.3125 1 6.68092
0.25 1 6.87149
0.3125 0.9375 6.56237
0.375 0.9375 6.37046
0.375 1 6.4897
0.3125 1 6.68092
0.3125 0.875 6.29643
0.375 0.875 6.09885
0.375 0.9375 6.37046
0.3125 0.9375 6.56237
0.25 0.875 6.4868
0.3125 0.875 6.29643
0.3125 0.9375 6.56237
0.25 0.9375 6.74932
0.375 0.9375 6.37046
0.4375 0.9375 6.16652
0.4375 1 6.28998
0.375 1 6.4897
0.4375 0.9375 6.16652
0.5 0.9375 5.93919
0.5 1 6.06718
0.4375 1 6.28998
0.4375 0.875 5.88704
0.5 0.875 5.6498
0.5 0.9375 5.93919
0.4375 0.9375 6.16652
0.375 0.875 6.09885
0.4375 0.875 5.88704
0.4375 0.9375 6.16652
0.375 0.9375 6.37046
0.375 0.8125 5.87382
0.4375 0.8125 5.65348
0.4375 0.875 5.88704
0.375 0.875 6.09885
0.4375 0.8125 5.65348
0.5 0.8125 5.40501
0.5 0.875 5.6498
0.4375 0.875 5.88704
0.4375 0.75 5.45846
0.5 0.75 5.20749
0.5 0.8125 5.40501
0.4375 0.8125 5.65348
0.375 0.75 5.67995
0.4375 0.75 5.45846
0.4375 0.8125 5.65348
0.375 0.8125 5.87382
0.25 0.8125 6.27187
0.3125 0.8125 6.07747
0.3125 0.875 6.29643
0.25 0.875 6.4868
0.3125 0.8125 6.07747
0.375 0.8125 5.87382
0.375 0.875 6.09885
0.3125 0.875 6.29643
0.3125 0.75 5.88304
0.375 0.75 5.67995
0.375 0.8125 5.87382
0.3125 0.8125 6.07747
0.25 0.75 6.076
0.3125 0.75 5.88304
0.3125 0.8125 6.07747
0.25 0.8125 6.27187
0.25 0.6875 5.89436
0.3125 0.6875 5.70709
0.3125 0.75 5.88304
0.25 0.75 6.076
0.3125 0.6875 5.70709
0.375 0.6875 5.51066
0.375 0.75 5.67995
0.3125 0.75 5.88304
0.3125 0.625 5.56875
0.375 0.625 5.38785
0.375 0.6875 5.51066
0.3125 0.6875 5.70709
0.25 0.625 5.74457
0.3125 0.625 5.56875
0.3125 0.6875 5.70709
0.25 0.6875 5.89436
0.375 0.6875 5.51066
0.4375 0.6875 5.29549
0.4375 0.75 5.45846
0.375 0.75 5.67995
0.4375 0.6875 5.29549
0.5 0.6875 5.05069
0.5 0.75 5.20749
0.4375 0.75 5.45846
0.4375 0.625 5.1908
0.5 0.625 4.96596
0.5 0.6875 5.05069
0.4375 0.6875 5.29549
0.375 0.625 5.38785
0.4375 0.625 5.1908
0.4375 0.6875 5.29549
0.375 0.6875 5.51066
0.375 0.5625 5.33624
0.4375 0.5625 5.17524
0.4375 0.625 5.1908
0.375 0.625 5.38785
0.4375 0.5625 5.17524
0.5 0.5625 4.99397
0.5 0.625 4.96596
0.4375 0.625 5.1908
0.4375 0.5 5.25136
0.5 0.5 5.13561
0.5 0.5625 4.99397
0.4375 0.5625 5.17524
0.46875 0.5 5.19348
0.5 0.53125 5.06479
0.46875 0.5625 5.08461
0.4375 0.53125 5.2133
0.46875 0.53125 5.13905
0.375 0.5 5.36172
0.4375 0.5 5.25136
0.4375 0.5625 5.17524
0.375 0.5625 5.33624
0.40625 0.5 5.30654
0.4375 0.53125 5.2133
0.40625 0.5625 5.25574
0.375 0.53125 5.34898
0.40625 0.53125 5.28114
0.25 0.5625 5.64541
0.3125 0.5625 5.48923
0.3125 0.625 5.56875
0.25 0.625 5.74457
0.3125 0.5625 5.48923
0.375 0.5625 5.33624
0.375 0.625 5.38785
0.3125 0.625 5.56875
0.3125 0.5 5.47776
0.375 0.5 5.36172
0.375 0.5625 5.33624
0.3125 0.5625 5.48923
0.25 0.5 5.60801
0.3125 0.5 5.47776
0.3125 0.5625 5.48923
0.25 0.5625 5.64541
0 0.6875 6.72362
0.0625 0.6875 6.60254
0.0625 0.75 6.77325
0 0.75 6.89288
0.0625 0.6875 6.60254
0.125 0.6875 6.31848
0.125 0.75 6.49537
0.0625 0.75 6.77325
0.0625 0.625 6.45162
0.125 0.625 6.16615
0.125 0.6875 6.31848
0.0625 0.6875 6.60254
0 0.625 6.57201
0.0625 0.625 6.45162
0.0625 0.6875 6.60254
0 0.6875 6.72362
0.125 0.6875 6.31848
0.1875 0.6875 6.08705
0.1875 0.75 6.26988
0.125 0.75 6.49537
0.1875 0.6875 6.08705
0.25 0.6875 5.89436
0.25 0.75 6.076
0.1875 0.75 6.26988
0.1875 0.625 5.93247
0.25 0.625 5.74457
0.25 0.6875 5.89436
0.1875 0.6875 6.08705
0.125 0.625 6.16615
0.1875 0.625 5.93247
0.1875 0.6875 6.08705
0.125 0.6875 6.31848
0.125 0.5625 6.05062
0.1875 0.5625 5.82213
0.1875 0.625 5.93247
0.125 0.625 6.16615
0.1875 0.5625 5.82213
0.25 0.5625 5.64541
0.25 0.625 5.74457
0.1875 0.625 5.93247
0.1875 0.5 5.76701
0.25 0.5 5.60801
0.25 0.5625 5.64541
0.1875 0.5625 5.82213
0.125 0.5 5.98118
0.1875 0.5 5.76701
0.1875 0.5625 5.82213
0.125 0.5625 6.05062
0 0.5625 6.44389
0.0625 0.5625 6.32868
0.0625 0.625 6.45162
0 0.625 6.57201
0.0625 0.5625 6.32868
0.125 0.5625 6.05062
0.125 0.625 6.16615
0.0625 0.625 6.45162
0.0625 0.5 6.24139
0.125 0.5 5.98118
0.125 0.5625 6.05062
0.0625 0.5625 6.32868
0 0.5 6.34624
0.0625 0.5 6.24139
0.0625 0.5625 6.32868
0 0.5625 6.44389
0.5 0.9375 5.93919
0.5625 0.9375 5.67106
0.5625 1 5.80016
0.5 1 6.06718
0.5625 0.9375 5.67106
0.625 0.9375 5.26215
0.625 1 5.38687
0.5625 1 5.80016
0.5625 0.875 5.37065
0.625 0.875 4.97766
0.625 0.9375 5.26215
0.5625 0.9375 5.67106
0.5 0.875 5.6498
0.5625 0.875 5.37065
0.5625 0.9375 5.67106
0.5 0.9375 5.93919
0.625 0.9375 5.26215
0.6875 0.9375 4.52098
0.6875 1 4.99126
0.625 1 5.38687
0.65625 0.9375 4.89157
0.6875 0.96875 4.75612
0.65625 1 5.18906
0.625 0.96875 5.32451
0.65625 0.96875 5.04032
0.640625 0.9375 5.07686
0.640625 0.96875 5.18241
0.671875 0.9375 4.70627
0.671875 0.96875 4.89822
0.6875 0.984375 4.87369
0.671875 1 5.09016
0.65625 0.984375 5.11469
0.671875 0.984375 4.99419
0.640625 1 5.28797
0.625 0.984375 5.35569
0.640625 0.984375 5.23519
0.6875 0.9375 4.52098
0.75 0.9375 2.79285
0.75 1 2.13421
0.6875 1 4.99126
0.71875 0.9375 3.65692
0.75 0.96875 2.46353
0.71875 1 3.56273
0.6875 0.96875 4.75612
0.71875 0.96875 3.60983
0.703125 0.9375 4.08895
0.703125 0.96875 4.18297
0.695312 0.9375 4.30497
0.703125 0.953125 4.13596
0.695312 0.96875 4.46955
0.6875 0.953125 4.63855
0.695312 0.953125 4.38726
0.710938 0.9375 3.87293
0.710938 0.96875 3.8964
0.707031 0.9375 3.98094
0.710938 0.953125 3.88467
0.707031 0.96875 4.03969
0.707031 0.953125 4.01031
0.714844 0.9375 3.76493
0.714844 0.96875 3.75311
0.734375 0.9375 3.22489
0.734375 0.96875 3.03668
0.726562 0.9375 3.4409
0.734375 0.953125 3.13078
0.726562 0.96875 3.32325
0.71875 0.953125 3.63337
0.726562 0.953125 3.38208
0.742188 0.9375 3.00887
0.742188 0.96875 2.7501
0.738281 0.9375 3.11688
0.742188 0.953125 2.87949
0.738281 0.96875 2.89339
0.738281 0.953125 3.00513
0.746094 0.9375 2.90086
0.746094 0.96875 2.60682
0.734375 1 2.84847
0.726562 1 3.2056
0.722656 0.96875 3.46654
0.722656 1 3.38417
0.730469 0.96875 3.17996
0.734375 0.984375 2.94257
0.730469 1 3.02704
0.726562 0.984375 3.26443
0.730469 0.984375 3.1035
0.75 0.984375 2.29887
0.742188 1 2.49134
0.742188 0.984375 2.62072
0.703125 1 4.277
0.703125 0.984375 4.22998
0.695312 1 4.63413
0.6875 0.984375 4.87369
0.695312 0.984375 4.55184
0.710938 1 3.91986
0.710938 0.984375 3.90813
0.707031 1 4.09843
0.707031 0.984375 4.06906
0.714844 1 3.7413
0.6875 0.875 4.33589
0.75 0.875 3.27023
0.75 0.9375 2.79285
0.6875 0.9375 4.52098
0.71875 0.875 3.80306
0.75 0.90625 3.03154
0.71875 0.9375 3.65692
0.6875 0.90625 4.42844
0.71875 0.90625 3.72999
0.703125 0.875 4.06948
0.703125 0.90625 4.07921
0.695312 0.875 4.20269
0.703125 0.890625 4.07435
0.695312 0.90625 4.25383
0.6875 0.890625 4.38217
0.695312 0.890625 4.22826
0.710938 0.875 3.93627
0.71875 0.890625 3.76652
0.710938 0.90625 3.9046
0.710938 0.890625 3.92044
0.734375 0.875 3.53664
0.734375 0.90625 3.38076
0.726562 0.875 3.66985
0.734375 0.890625 3.4587
0.726562 0.90625 3.55538
0.726562 0.890625 3.61261
0.742188 0.875 3.40343
0.742188 0.90625 3.20615
0.75 0.921875 2.9122
0.734375 0.9375 3.22489
0.71875 0.921875 3.69345
0.734375 0.921875 3.30283
0.703125 0.9375 4.08895
0.703125 0.921875 4.08408
0.695312 0.9375 4.30497
0.6875 0.921875 4.47471
0.695312 0.921875 4.2794
0.710938 0.9375 3.87293
0.710938 0.921875 3.88877
0.625 0.875 4.97766
0.6875 0.875 4.33589
0.6875 0.9375 4.52098
0.625 0.9375 5.26215
0.65625 0.875 4.65678
0.6875 0.90625 4.42844
0.65625 0.9375 4.89157
0.625 0.90625 5.11991
0.65625 0.90625 4.77417
0.625 0.8125 4.73687
0.6875 0.8125 4.21083
0.6875 0.875 4.33589
0.625 0.875 4.97766
0.65625 0.8125 4.47385
0.6875 0.84375 4.27336
0.65625 0.875 4.65678
0.625 0.84375 4.85727
0.65625 0.84375 4.56532
0.6875 0.8125 4.21083
0.75 0.8125 3.48582
0.75 0.875 3.27023
0.6875 0.875 4.33589
0.71875 0.8125 3.84833
0.75 0.84375 3.37802
0.71875 0.875 3.80306
0.6875 0.84375 4.27336
0.71875 0.84375 3.82569
0.703125 0.8125 4.02958
0.703125 0.84375 4.04953
0.734375 0.8125 3.66708
0.75 0.828125 3.43192
0.734375 0.84375 3.60186
0.71875 0.828125 3.83701
0.734375 0.828125 3.63447
0.75 0.859375 3.32413
0.734375 0.875 3.53664
0.71875 0.859375 3.81438
0.734375 0.859375 3.56925
0.703125 0.875 4.06948
0.6875 0.859375 4.30463
0.703125 0.859375 4.0595
0.6875 0.75 4.11266
0.75 0.75 3.56529
0.75 0.8125 3.48582
0.6875 0.8125 4.21083
0.71875 0.75 3.83898
0.75 0.78125 3.52556
0.71875 0.8125 3.84833
0.6875 0.78125 4.16175
0.71875 0.78125 3.84365
0.625 0.75 4.5584
0.6875 0.75 4.11266
0.6875 0.8125 4.21083
0.625 0.8125 4.73687
0.65625 0.75 4.33553
0.6875 0.78125 4.16175
0.65625 0.8125 4.47385
0.625 0.78125 4.64764
0.65625 0.78125 4.40469
0.5 0.8125 5.40501
0.5625 0.8125 5.11303
0.5625 0.875 5.37065
0.5 0.875 5.6498
[...]
POINT_DATA 5969
SCALARS "density" float 1
LOOKUP_TABLE default
7.51363
7.39617
7.52287
7.52287
7.4549
7.45952
7.52287
7.51825
7.48889
7.39617
7.13606
7.27453
7.52287
7.14362
6.88207
7.13606
7.39617
7.26722
7.14362
7.39617
7.51363
7.13606
6.93451
7.06589
7.27453
6.93451
6.74932
6.87149
7.06589
6.6745
6.4868
6.74932
6.93451
6.88207
6.6745
6.93451
7.13606
6.68292
6.46468
6.6745
6.88207
6.46468
6.27187
6.4868
6.6745
6.26988
6.076
6.27187
6.46468
6.49537
6.26988
6.46468
6.68292
7.07546
6.95408
7.14362
7.26722
6.95408
6.68292
6.88207
7.14362
6.77325
6.49537
6.68292
6.95408
6.89288
6.77325
6.95408
7.07546
6.74932
6.56237
6.68092
6.87149
6.56237
6.37046
6.4897
6.68092
6.29643
6.09885
6.37046
6.56237
6.4868
6.29643
6.56237
6.74932
6.37046
6.16652
6.28998
6.4897
6.16652
5.93919
6.06718
6.28998
5.88704
5.6498
5.93919
6.16652
6.09885
5.88704
6.16652
6.37046
5.87382
5.65348
5.88704
6.09885
5.65348
5.40501
5.6498
5.88704
5.45846
5.20749
5.40501
5.65348
5.67995
5.45846
5.65348
5.87382
6.27187
6.07747
6.29643
6.4868
6.07747
5.87382
6.09885
6.29643
5.88304
5.67995
5.87382
6.07747
6.076
5.88304
6.07747
6.27187
5.89436
5.70709
5.88304
6.076
5.70709
5.51066
5.67995
5.88304
5.56875
5.38785
5.51066
5.70709
5.74457
5.56875
5.70709
5.89436
5.51066
5.29549
5.45846
5.67995
5.29549
5.05069
5.20749
5.45846
5.1908
4.96596
5.05069
5.29549
5.38785
5.1908
5.29549
5.51066
5.33624
5.17524
5.1908
5.38785
5.17524
4.99397
4.96596
5.1908
5.25136
5.13561
4.99397
5.17524
5.19348
5.06479
5.08461
5.2133
5.13905
5.36172
5.25136
5.17524
5.33624
5.30654
5.2133
5.25574
5.34898
5.28114
5.64541
5.48923
5.56875
5.74457
5.48923
5.33624
5.38785
5.56875
5.47776
5.36172
5.33624
5.48923
5.60801
5.47776
5.48923
5.64541
6.72362
6.60254
6.77325
6.89288
6.60254
6.31848
6.49537
6.77325
6.45162
6.16615
6.31848
6.60254
6.57201
6.45162
6.60254
6.72362
6.31848
6.08705
6.26988
6.49537
6.08705
5.89436
6.076
6.26988
5.93247
5.74457
5.89436
6.08705
6.16615
5.93247
6.08705
6.31848
6.05062
5.82213
5.93247
6.16615
5.82213
5.64541
5.74457
5.93247
5.76701
5.60801
5.64541
5.82213
5.98118
5.76701
5.82213
6.05062
6.44389
6.32868
6.45162
6.57201
6.32868
6.05062
6.16615
6.45162
6.24139
5.98118
6.05062
6.32868
6.34624
6.24139
6.32868
6.44389
5.93919
5.67106
5.80016
6.06718
5.67106
5.26215
5.38687
5.80016
5.37065
4.97766
5.26215
5.67106
5.6498
5.37065
5.67106
5.93919
5.26215
4.52098
4.99126
5.38687
4.89157
4.75612
5.18906
5.32451
5.04032
5.07686
5.18241
4.70627
4.89822
4.87369
5.09016
5.11469
4.99419
5.28797
5.35569
5.23519
4.52098
2.79285
2.13421
4.99126
3.65692
2.46353
3.56273
4.75612
3.60983
4.08895
4.18297
4.30497
4.13596
4.46955
4.63855
4.38726
3.87293
3.8964
3.98094
3.88467
4.03969
4.01031
3.76493
3.75311
3.22489
3.03668
3.4409
3.13078
3.32325
3.63337
3.38208
3.00887
2.7501
3.11688
2.87949
2.89339
3.00513
2.90086
2.60682
2.84847
3.2056
3.46654
3.38417
3.17996
2.94257
3.02704
3.26443
3.1035
2.29887
2.49134
2.62072
4.277
4.22998
4.63413
4.87369
4.55184
3.91986
3.90813
4.09843
4.06906
3.7413
4.33589
3.27023
2.79285
4.52098
3.80306
3.03154
3.65692
4.42844
3.72999
4.06948
4.07921
4.20269
4.07435
4.25383
4.38217
4.22826
3.93627
3.76652
3.9046
3.92044
3.53664
3.38076
3.66985
3.4587
3.55538
3.61261
3.40343
3.20615
2.9122
3.22489
3.69345
3.30283
4.08895
4.08408
4.30497
4.47471
4.2794
3.87293
3.88877
4.97766
4.33589
4.52098
5.26215
4.65678
4.42844
4.89157
5.11991
4.77417
4.73687
4.21083
4.33589
4.97766
4.47385
4.27336
4.65678
4.85727
4.56532
4.21083
3.48582
3.27023
4.33589
3.84833
3.37802
3.80306
4.27336
3.82569
4.02958
4.04953
3.66708
3.43192
3.60186
3.83701
3.63447
3.32413
3.53664
3.81438
3.56925
4.06948
4.30463
4.0595
4.11266
3.56529
3.48582
4.21083
3.83898
3.52556
3.84833
4.16175
3.84365
4.5584
4.11266
4.21083
4.73687
4.33553
4.16175
4.47385
4.64764
4.40469
5.40501
5.11303
5.37065
5.6498
5.11303
4.73687
4.97766
5.37065
4.91429
4.5584
4.73687
5.11303
5.20749
4.91429
5.11303
5.40501
2.79285
1.43991
0.727022
2.13421
2.11638
1.08346
1.43061
2.46353
1.7735
1.43991
0.859582
0.607359
0.727022
1.14974
0.733471
0.667191
1.08346
0.908467
1.29483
1.02911
0.995966
1.26169
1.1454
1.00466
0.796526
0.820969
0.912816
0.670415
0.637275
0.787829
0.729122
0.697106
1.03972
0.712064
0.952217
0.682149
0.846536
0.817183
2.22876
1.52743
0.859582
1.43991
1.87809
1.1935
1.14974
1.83433
1.51392
3.27023
2.22876
1.43991
2.79285
2.74949
1.83433
2.11638
3.03154
2.43294
3.00986
2.59121
2.73224
3.15088
2.87105
2.48913
2.03155
2.13363
2.31138
1.77814
2.27466
2.45462
2.9122
2.59343
0.859582
0.640742
0.572855
0.607359
0.750162
0.606799
0.590107
0.733471
0.670135
0.640742
0.581029
0.570835
0.572855
0.610885
0.575932
0.571845
0.606799
0.591365
1.12093
0.880423
0.581029
0.640742
1.00068
0.730726
0.610885
0.880838
0.805782
1.52743
1.12093
0.640742
0.859582
1.32418
0.880838
0.750162
1.1935
1.03717
2.0697
1.60468
1.12093
1.52743
1.83719
1.36281
1.32418
1.79856
1.58069
1.60468
1.28969
0.880423
1.12093
1.44719
1.08506
1.00068
1.36281
1.22393
1.98137
1.64873
1.28969
1.60468
2.42825
1.98137
1.60468
2.0697
3.48582
2.7138
2.22876
3.27023
3.09981
2.47128
2.74949
3.37802
2.92465
3.29282
3.01223
3.15134
3.43192
3.22208
2.90681
2.59254
2.69797
2.80239
2.35002
2.48913
2.83707
2.59355
3.00986
3.32413
3.0806
2.7138
2.0697
1.52743
2.22876
2.39175
1.79856
1.87809
2.47128
2.13492
2.97442
2.42825
2.0697
2.7138
2.70134
2.24898
2.39175
2.84411
2.54654
3.56529
2.97442
2.7138
3.48582
3.26986
2.84411
3.09981
3.52556
3.18483
3.58783
3.11064
2.97442
3.56529
3.34924
3.04253
3.26986
3.57656
3.30955
3.11064
2.65287
2.42825
2.97442
2.88176
2.54056
2.70134
3.04253
2.79155
3.26013
2.87513
2.65287
3.11064
3.06763
2.764
2.88176
3.18539
2.97469
3.66067
3.26013
3.11064
3.58783
3.4604
3.18539
3.34924
3.62425
3.40482
2.65287
2.25615
1.98137
2.42825
2.45451
2.11876
2.20481
2.54056
2.32966
2.25615
1.94757
1.64873
1.98137
2.53614
2.26775
1.94757
2.25615
2.87513
2.53614
2.25615
2.65287
2.70564
2.39615
2.45451
2.764
2.58007
3.2855
3.00426
2.53614
2.87513
3.14488
2.7702
2.70564
3.08032
2.92526
3.00426
2.7706
2.26775
2.53614
3.70736
3.49083
2.7706
3.00426
3.93851
3.70736
3.00426
3.2855
3.82294
3.35581
3.14488
3.61201
3.48391
3.92542
3.59956
3.26013
3.66067
3.76249
3.42984
3.4604
3.79305
3.61145
3.59956
3.2855
2.87513
3.26013
3.44253
3.08032
3.06763
3.42984
3.25508
4.17919
3.93851
3.2855
3.59956
4.05885
3.61201
3.44253
3.88937
3.75069
4.41811
4.17919
3.59956
3.92542
4.29865
3.88937
3.76249
4.17177
4.03057
5.05069
4.76576
4.91429
5.20749
4.76576
4.43081
4.5584
4.91429
4.70313
4.39657
4.43081
4.76576
4.96596
4.70313
4.76576
5.05069
4.43081
4.03746
4.11266
4.5584
4.23414
4.07506
4.33553
4.49461
4.28483
4.03746
3.58783
3.56529
4.11266
3.81265
3.57656
3.83898
4.07506
3.82581
4.04633
3.66067
3.58783
4.03746
3.8535
3.62425
3.81265
4.04189
3.83307
4.39657
4.04633
4.03746
4.43081
4.52935
4.24095
4.04633
4.39657
4.38515
4.14364
4.22145
4.46296
4.3033
4.24095
3.92542
3.66067
4.04633
4.08319
3.79305
3.8535
4.14364
3.96834
4.64143
4.41811
3.92542
4.24095
4.52977
4.17177
4.08319
4.44119
4.30648
4.83752
4.64143
4.24095
4.52935
4.73947
4.44119
4.38515
4.68343
4.56231
4.99397
4.78085
4.70313
4.96596
4.88741
4.74199
4.83454
4.97996
4.86098
4.78085
4.52935
4.39657
4.70313
4.6551
4.46296
4.54985
4.74199
4.60248
5.00117
4.83752
4.52935
4.78085
4.91935
4.68343
4.6551
4.89101
4.78722
5.13561
5.00117
4.78085
4.99397
5.06839
4.89101
4.88741
5.06479
4.9779
5.32644
5.27346
5.00117
5.13561
5.29995
5.13732
5.06839
5.23102
5.18417
5.27346
5.20256
4.83752
5.00117
5.23801
5.02004
4.91935
5.13732
5.07868
5.47672
5.46633
5.20256
5.27346
5.47152
5.33444
5.23801
5.37509
5.35477
5.47878
5.47672
5.27346
5.32644
5.47775
5.37509
5.29995
5.40261
5.38885
5.20256
5.10196
4.64143
4.83752
5.15226
4.87169
4.73947
5.02004
4.94587
5.10196
4.96831
4.41811
4.64143
5.03513
4.69321
4.52977
4.87169
4.78245
5.42565
5.34225
4.96831
5.10196
5.38395
5.15528
5.03513
5.2638
5.20954
5.46633
5.42565
5.10196
5.20256
5.44599
5.2638
5.15226
5.33444
5.29912
5.54608
5.52138
5.42565
5.46633
5.52138
5.46419
5.34225
5.42565
5.50664
5.44945
5.46419
5.52138
5.538
5.50664
5.52138
5.54608
5.55312
5.55746
5.47672
5.47878
5.55746
5.54608
5.46633
5.47672
5.55825
5.538
5.54608
5.55746
5.57039
5.55825
5.55746
5.55312
4.96831
4.80609
4.17919
4.41811
4.8872
4.49264
4.29865
4.69321
4.59292
4.80609
4.62224
3.93851
4.17919
4.71416
4.28037
4.05885
4.49264
4.38651
5.21958
5.06389
4.62224
4.80609
5.34225
5.21958
4.80609
4.96831
4.62224
4.42181
3.70736
3.93851
4.42181
4.20763
3.49083
3.70736
4.87867
4.67178
4.20763
4.42181
5.06389
4.87867
4.42181
4.62224
5.22138
5.06104
4.87867
5.06389
5.06104
4.88749
4.67178
4.87867
5.15848
5.05122
4.88749
5.06104
5.10485
4.96935
4.97427
5.10976
5.03956
5.26383
5.15848
5.06104
5.22138
5.21116
5.10976
5.14121
5.2426
5.17618
5.46419
5.35749
5.21958
5.34225
5.35749
5.22138
5.06389
5.21958
5.3626
5.26383
5.22138
5.35749
5.44945
5.3626
5.35749
5.46419
5.4181
5.36038
5.3626
5.44945
5.36038
5.31513
5.26383
5.3626
5.33775
5.28948
5.31321
5.36149
5.32548
5.35815
5.3736
5.31513
5.36038
5.36588
5.34437
5.33775
5.35927
5.35182
5.37278
5.35815
5.36038
5.4181
5.31513
5.29122
5.15848
5.26383
5.30317
5.22485
5.21116
5.28948
5.25717
5.29122
5.27747
5.05122
5.15848
5.28435
5.16435
5.10485
5.22485
5.1946
5.44097
5.52721
5.27747
5.29122
5.48409
5.40234
5.28435
5.36609
5.38422
5.3736
5.44097
5.29122
5.31513
5.40729
5.36609
5.30317
5.34437
5.35523
5.4026
5.55905
5.44097
5.3736
5.48083
5.50001
5.40729
5.3881
5.44406
5.55905
5.72508
5.52721
5.44097
5.64206
5.62614
5.48409
5.50001
5.56307
5.61298
5.83383
5.72508
5.55905
5.7234
5.77945
5.64206
5.58602
5.68273
5.45513
5.61298
5.55905
5.4026
5.36443
5.36429
5.35815
5.37278
5.36429
5.4026
5.3736
5.35815
5.39739
5.45513
5.4026
5.36429
5.40143
5.39739
5.36429
5.36443
5.56531
5.53122
5.55825
5.57039
5.53122
5.49899
5.538
5.55825
5.49081
5.43245
5.49899
5.53122
5.55618
5.49081
5.53122
5.56531
5.49899
5.46511
5.50664
5.538
5.46511
5.4181
5.44945
5.50664
5.39555
5.37278
5.4181
5.46511
5.43245
5.39555
5.46511
5.49899
5.37977
5.36685
5.39555
5.43245
5.36685
5.36443
5.37278
5.39555
5.39654
5.40143
5.36443
5.36685
5.40043
5.39654
5.36685
5.37977
5.5177
5.42948
5.49081
5.55618
5.42948
5.37977
5.43245
5.49081
5.4561
5.40043
5.37977
5.42948
5.54556
5.4561
5.42948
5.5177
6.28482
6.19489
6.24139
6.34624
6.19489
5.96118
5.98118
6.24139
6.19139
5.98647
5.96118
6.19489
6.26428
6.19139
6.19489
6.28482
5.96118
5.76813
5.76701
5.98118
5.76813
5.62884
5.60801
5.76701
5.81456
5.68914
5.62884
5.76813
5.98647
5.81456
5.76813
5.96118
6.04679
5.88771
5.81456
5.98647
5.88771
5.76392
5.68914
5.81456
5.96721
5.83131
5.76392
5.88771
6.12894
5.96721
5.88771
6.04679
6.28865
6.2277
6.19139
6.26428
6.2277
6.04679
5.98647
6.19139
6.30019
6.12894
6.04679
6.2277
6.35269
6.30019
6.2277
6.28865
5.62884
5.52263
5.47776
5.60801
5.52263
5.43998
5.36172
5.47776
5.59528
5.5291
5.43998
5.52263
5.68914
5.59528
5.52263
5.62884
5.43998
5.37724
5.25136
5.36172
5.37724
5.32644
5.13561
5.25136
5.35184
5.23102
5.19348
5.3143
5.27266
5.49188
5.47878
5.32644
5.37724
5.5291
5.49188
5.37724
5.43998
5.59822
5.56154
5.49188
5.5291
5.56154
5.55312
5.47878
5.49188
5.59231
5.57039
5.55312
5.56154
5.64042
5.59231
5.56154
5.59822
5.76392
5.66704
5.59528
5.68914
5.66704
5.59822
5.5291
5.59528
5.72093
5.64042
5.59822
5.66704
5.83131
5.72093
5.66704
5.76392
5.87415
5.74979
5.72093
5.83131
5.74979
5.66193
5.64042
5.72093
5.75216
5.67191
5.66193
5.74979
5.87784
5.75216
5.74979
5.87415
5.66193
5.60442
5.59231
5.64042
5.60442
5.56531
5.57039
5.59231
5.61252
5.55618
5.56531
5.60442
5.67191
5.61252
5.60442
5.66193
5.64422
5.5884
5.61252
5.67191
5.5884
5.5177
5.55618
5.61252
5.62192
5.54556
5.5177
5.5884
5.67582
5.62192
5.5884
5.64422
5.78738
5.6961
5.75216
5.87784
5.6961
5.64422
5.67191
5.75216
5.6963
5.67582
5.64422
5.6961
5.71827
5.6963
5.6961
5.78738
5.70729
5.6962
5.74174
5.75283
5.72452
6.45614
6.40496
6.30019
6.35269
6.40496
6.21969
6.12894
6.30019
6.54086
6.31033
6.21969
6.40496
6.59768
6.54086
6.40496
6.45614
6.21969
6.03358
5.96721
6.12894
6.03358
5.87415
5.83131
5.96721
6.06843
5.87784
5.87415
6.03358
6.31033
6.06843
6.03358
6.21969
6.18938
6.05101
6.12664
6.26501
6.15801
6.38733
6.00969
6.06843
6.31033
6.19851
6.03906
6.18938
6.34883
6.19395
6.00969
5.78738
5.87784
6.06843
5.90942
5.71827
5.78738
6.00969
6.61
5.90942
6.00969
6.38733
6.25971
5.95956
6.19851
6.49866
6.22911
6.43485
6.24441
6.36389
6.55433
6.39937
6.08457
5.93449
6.09433
6.08945
5.98462
6.1041
6.21381
6.09922
6.29292
6.443
6.3284
6.74847
6.69136
6.54086
6.59768
6.69136
6.38733
6.31033
6.54086
6.53934
6.34883
6.4256
6.61611
6.48247
6.82584
6.61
6.38733
6.69136
6.71792
6.49866
6.53934
6.7586
6.62863
6.82687
6.82584
6.69136
6.74847
6.82636
6.7586
6.71991
6.78767
6.77313
0.581029
0.573736
0.570835
0.570835
0.573736
0.591675
0.577388
0.570835
0.757405
0.753271
0.591675
0.573736
0.880423
0.757405
0.573736
0.581029
0.818914
0.66557
0.577382
0.730726
0.698148
0.591675
0.68622
0.613512
0.577388
0.638947
0.649866
0.59545
0.584532
0.617199
0.68622
0.893469
0.772076
0.613512
0.789844
0.832772
0.692794
0.649866
0.741319
0.874077
1.0689
0.893469
0.68622
0.753271
0.874077
0.68622
0.591675
1.04476
1.12312
0.874077
0.753271
1.12312
1.27466
1.0689
0.874077
1.394
1.49073
1.27466
1.12312
1.44236
1.3827
1.19889
1.25856
1.32063
1.35829
1.394
1.12312
1.04476
1.28969
1.10076
0.757405
0.880423
1.19523
0.929085
0.818914
1.08506
1.00707
1.10076
1.04476
0.753271
0.757405
1.07276
0.899017
0.755338
0.929085
0.914051
1.43713
1.35829
1.04476
1.10076
1.64873
1.43713
1.10076
1.28969
0.893469
1.10343
0.957406
0.772076
1.10343
1.36416
1.16026
0.957406
1.23379
1.26221
1.05883
1.03042
1.14631
1.27116
1.56417
1.36416
1.10343
1.0689
1.27116
1.10343
0.893469
1.36416
1.88976
1.52522
1.16026
1.62696
1.70749
1.34274
1.26221
1.48485
1.88976
2.93681
2.31404
1.52522
2.41328
2.62542
1.91963
1.70749
2.16646
2.28987
1.79862
2.67505
2.78112
2.39594
2.53549
2.46973
2.11683
2.04304
2.25639
1.93697
1.72243
1.61636
1.8297
2.18666
3.33433
2.93681
1.88976
2.7605
3.13557
2.41328
2.03821
2.58689
1.56417
2.18666
1.88976
1.36416
1.87542
2.03821
1.62696
1.46416
1.75119
1.75535
2.39888
2.18666
1.56417
2.39888
3.48283
3.33433
2.18666
2.94085
3.40858
2.7605
2.29277
2.85068
2.56608
3.5919
3.48283
2.39888
3.07899
3.53737
2.94085
2.48248
3.00992
1.92816
2.56608
2.39888
1.75535
1.27466
1.45366
1.27116
1.0689
1.45366
1.75535
1.56417
1.27116
1.63394
1.92816
1.75535
1.45366
1.49073
1.63394
1.45366
1.27466
1.70574
1.81384
1.63394
1.49073
1.81384
2.1046
1.92816
1.63394
2.01478
2.30634
2.1046
1.81384
1.93459
2.01478
1.81384
1.70574
2.1046
2.74618
2.56608
1.92816
2.74618
3.73642
3.5919
2.56608
2.95369
3.92068
3.73642
2.74618
2.30634
2.95369
2.74618
2.1046
2.56212
3.18807
2.95369
2.30634
3.18807
4.09547
3.92068
2.95369
3.64177
4.00808
3.43718
3.07088
3.53948
3.47495
4.29707
4.09547
3.18807
3.88601
4.19627
3.64177
3.33151
3.76389
2.94364
3.47495
3.18807
2.56212
3.2093
3.33151
2.87509
2.75288
3.0422
2.2563
2.29251
2.01478
1.93459
2.29251
2.56212
2.30634
2.01478
2.74349
2.94364
2.56212
2.29251
2.84357
2.75288
2.42732
2.518
2.63544
2.76399
2.74349
2.29251
2.2563
2.75374
2.518
2.27441
2.51014
2.51407
1.94757
1.74575
1.43713
1.64873
1.74575
1.65758
1.35829
1.43713
2.08489
1.9841
1.65758
1.74575
2.26775
2.08489
1.74575
1.94757
1.65758
1.65868
1.394
1.35829
1.65868
1.70574
1.49073
1.394
1.68221
1.59823
1.44236
1.52634
1.56229
1.93983
1.93459
1.70574
1.65868
1.93721
1.82017
1.68221
1.79926
1.80971
1.9841
1.93983
1.65868
1.65758
2.44648
2.33116
1.93983
1.9841
2.38882
2.1355
1.96197
2.21529
2.17539
2.33116
2.2563
1.93459
1.93983
2.29373
2.09545
1.93721
2.1355
2.11547
2.90339
2.76399
2.2563
2.33116
2.83369
2.51014
2.29373
2.61727
2.56371
3.08951
2.90339
2.33116
2.44648
2.99645
2.61727
2.38882
2.76799
2.69263
2.7706
2.58819
2.08489
2.26775
2.58819
2.44648
1.9841
2.08489
3.2868
3.08951
2.44648
2.58819
3.18815
2.76799
2.51734
2.93749
2.85274
3.49083
3.2868
2.58819
2.7706
2.93681
3.99225
3.30387
2.31404
3.46453
3.64806
2.80895
2.62542
3.13674
3.99225
3.74661
3.22826
3.30387
3.86943
3.48743
3.26607
3.64806
3.56775
4.16645
4.16888
3.74661
3.99225
4.16766
3.95774
3.86943
4.07935
4.01854
4.16706
4.0931
4.04895
4.1229
4.108
4.16827
4.06331
3.98814
4.07821
3.85217
3.80802
3.94399
3.89808
3.93084
4.0358
3.98989
3.33433
4.16645
3.99225
2.93681
3.75039
4.07935
3.46453
3.13557
3.60746
3.54236
3.67893
3.37151
3.23495
3.45694
3.95842
4.1229
3.8434
3.90091
4.0358
3.72839
3.53599
3.7859
3.20067
3.03619
3.28609
3.74661
2.1974
2.04313
3.22826
2.972
2.12026
2.63569
3.48743
2.80385
3.3593
2.88792
3.14564
3.61702
3.25247
2.5847
2.15883
2.46205
2.52338
2.08169
2.71977
2.93198
2.1974
1.52776
1.51211
2.04313
1.86258
1.51994
1.77762
2.12026
1.8201
2.5569
1.60066
1.52776
2.1974
2.07878
1.56421
1.86258
2.37715
1.97068
2.31784
2.02473
2.17391
2.46702
2.24588
1.83972
1.76745
1.54599
1.69517
1.91663
1.73131
2.02999
4.16888
2.5569
2.1974
3.74661
3.36289
2.37715
2.972
3.95774
3.16744
4.36544
2.90133
2.5569
4.16888
3.63338
2.72911
3.36289
4.26716
3.49814
2.90133
1.68628
1.60066
2.5569
2.2938
1.64347
2.07878
2.72911
2.18629
2.59756
2.4577
1.99004
1.66488
1.91488
2.24005
1.95246
1.62207
1.83972
2.13254
1.8773
2.31784
2.643
2.38777
3.17786
1.75872
1.68628
2.90133
2.46829
1.7225
2.2938
3.03959
2.38105
2.82308
2.42467
2.71032
3.10873
2.7667
2.11351
1.74061
2.05177
2.08264
1.70439
1.99004
2.33743
2.02091
2.59756
2.97046
2.65394
4.48547
3.17786
2.90133
4.36544
3.83166
3.03959
3.63338
4.42545
3.73252
3.48283
4.32511
4.16645
3.33433
4.32511
4.36544
4.16888
4.16645
4.41436
4.48547
4.36544
4.32511
3.5919
4.41436
4.32511
3.48283
1.52776
1.40824
1.40631
1.51211
1.40824
1.40025
1.40017
1.40631
1.41547
1.40047
1.40025
1.40824
1.60066
1.41547
1.40824
1.52776
1.50807
1.41186
1.468
1.56421
1.48804
1.40025
1.4
1.4
1.40017
1.4
1.4
1.4
1.4
1.40001
1.4
1.4
1.4
1.40047
1.40001
1.4
1.40025
1.40084
1.40001
1.40001
1.40047
1.40001
1.4
1.4
1.40001
1.40002
1.4
1.4
1.40001
1.40125
1.40002
1.40001
1.40084
1.68628
1.4263
1.41547
1.60066
1.55629
1.42088
1.50807
1.64347
1.53218
1.4263
1.40084
1.40047
1.41547
1.43741
1.40125
1.40084
1.4263
1.75872
1.43741
1.4263
1.68628
1.59807
1.43185
1.55629
1.7225
1.57718
1.80228
1.44494
1.43741
1.75872
1.44494
1.40154
1.40125
1.43741
1.44598
1.40156
1.40154
1.44494
1.80897
1.44598
1.44494
1.80228
1.40154
1.40003
1.40002
1.40125
1.40003
1.4
1.4
1.40002
1.40003
1.4
1.4
1.40003
1.40156
1.40003
1.40003
1.40154
1.40131
1.40002
1.40003
1.40156
1.40002
1.4
1.4
1.40003
1.40002
1.4
1.4
1.40002
1.40089
1.40002
1.40002
1.40131
1.77608
1.43985
1.44598
1.80897
1.43985
1.40131
1.40156
1.44598
1.42861
1.40089
1.40131
1.43985
1.70582
1.42861
1.43985
1.77608
1.56721
1.43423
1.60797
1.74095
1.58759
3.73642
4.53063
4.41436
3.5919
4.53063
4.56429
4.48547
4.41436
4.63111
4.66116
4.56429
4.53063
3.92068
4.63111
4.53063
3.73642
4.27589
4.58087
4.13352
3.82855
4.20471
4.56429
3.35418
3.17786
4.48547
3.95924
3.26602
3.83166
4.52488
3.89545
3.35418
1.80228
1.75872
3.17786
2.57823
1.7805
2.46829
3.26602
2.52326
3.37723
1.80897
1.80228
3.35418
4.66116
3.37723
3.35418
4.56429
4.01919
3.36571
3.95924
4.61272
3.98922
4.79571
3.22756
3.37723
4.66116
4.01163
3.3024
4.01919
4.72843
4.01541
4.40367
4.37192
3.6196
3.65891
3.69821
4.0173
4.34017
4.69479
4.35605
3.22756
1.77608
1.80897
3.37723
2.50182
1.79253
2.5931
3.3024
2.54746
2.95491
1.70582
1.77608
3.22756
2.33036
1.74095
2.50182
3.09123
2.41609
2.64263
2.37323
2.75366
3.02307
2.69815
2.01809
1.72338
2.07852
2.0483
1.75851
2.13895
2.45896
2.10874
2.86469
3.1594
2.80918
4.74634
2.95491
3.22756
4.79571
3.85062
3.09123
4.01163
4.77102
3.93113
4.29848
3.89087
4.35107
4.75868
4.32478
3.40276
3.02307
3.51118
3.45697
3.1594
3.6196
3.97138
3.56539
4.40367
4.78336
4.37737
4.09547
4.78051
4.63111
3.92068
4.78051
4.79571
4.66116
4.63111
4.9513
4.74634
4.79571
4.78051
4.84882
4.77102
4.78811
4.8659
4.81846
4.90006
4.84218
4.79758
4.75868
4.79474
4.83364
4.79616
4.79191
4.80328
4.78431
4.8232
4.81324
4.29707
4.9513
4.78051
4.09547
4.65108
5.21371
4.9513
4.29707
4.9324
5.0825
4.62418
4.47408
4.77829
5.21371
4.53484
4.74634
4.9513
4.87427
4.64059
4.84882
5.0825
4.86155
5.04399
4.86791
4.97203
5.14811
5.00801