# vtk DataFile Version 2.0

ASCII

DATASET UNSTRUCTURED_GRID
POINTS 10376 float
0 0.9375 1.18954
0.0625 0.9375 1.23686
0.0625 1 1.11529
0 1 1.15861
0.03125 0.9375 1.21301
0.0625 0.96875 1.17556
0.03125 1 1.13695
0 0.96875 1.17406
0.03125 0.96875 1.17481
0.015625 0.9375 1.20123
0.03125 0.953125 1.19387
0.015625 0.96875 1.17444
0 0.953125 1.1818
0.015625 0.953125 1.18782
0.046875 0.9375 1.22489
0.0625 0.953125 1.20608
0.046875 0.96875 1.17518
0.046875 0.953125 1.19996
0.0625 0.984375 1.14529
0.03125 0.984375 1.15584
0.0625 0.976562 1.16039
0.03125 0.976562 1.16531
0.0625 0.992188 1.13026
0.03125 0.992188 1.14638
0 0.984375 1.16633
0.015625 0.984375 1.16109
0 0.976562 1.1702
0.015625 0.976562 1.16776
0.015625 1 1.14778
0 0.992188 1.16247
0.015625 0.992188 1.15443
0.0625 0.9375 1.23686
0.125 0.9375 1.34742
0.125 1 1.17234
0.0625 1 1.11529
0.09375 0.9375 1.29115
0.125 0.96875 1.25904
0.09375 1 1.14334
0.0625 0.96875 1.17556
0.09375 0.96875 1.21658
0.078125 0.9375 1.26377
0.09375 0.953125 1.2537
0.078125 0.96875 1.19589
0.0625 0.953125 1.20608
0.078125 0.953125 1.22968
0.109375 0.9375 1.31903
0.125 0.953125 1.30302
0.109375 0.96875 1.23762
0.109375 0.953125 1.27814
0.125 0.984375 1.21548
0.109375 1 1.15772
0.09375 0.984375 1.17979
0.109375 0.984375 1.19748
0.078125 1 1.12919
0.0625 0.984375 1.14529
0.078125 0.984375 1.1624
0.0625 0.875 1.3825
0.125 0.875 1.51328
0.125 0.9375 1.34742
0.0625 0.9375 1.23686
0.09375 0.875 1.44667
0.125 0.90625 1.42885
0.09375 0.9375 1.29115
0.0625 0.90625 1.30842
0.09375 0.90625 1.36753
0 0.875 1.3249
0.0625 0.875 1.3825
0.0625 0.9375 1.23686
0 0.9375 1.18954
0.03125 0.875 1.35345
0.0625 0.90625 1.30842
0.03125 0.9375 1.21301
0 0.90625 1.25609
0.03125 0.90625 1.28204
0.125 0.9375 1.34742
0.1875 0.9375 1.40839
0.1875 1 1.19302
0.125 1 1.17234
0.15625 0.9375 1.37747
0.1875 0.96875 1.2997
0.15625 1 1.18253
0.125 0.96875 1.25904
0.15625 0.96875 1.27908
0.140625 0.9375 1.36234
0.15625 0.953125 1.32804
0.140625 0.96875 1.26899
0.125 0.953125 1.30302
0.140625 0.953125 1.31544
0.171875 0.9375 1.39282
0.1875 0.953125 1.35379
0.171875 0.96875 1.28931
0.171875 0.953125 1.34082
0.1875 0.984375 1.24611
0.171875 1 1.18774
0.15625 0.984375 1.23058
0.171875 0.984375 1.23829
0.140625 1 1.1774
0.125 0.984375 1.21548
0.140625 0.984375 1.22298
0.1875 0.9375 1.40839
0.25 0.9375 1.44471
0.25 1 1.19466
0.1875 1 1.19302
0.21875 0.9375 1.4263
0.25 0.96875 1.31856
0.21875 1 1.19383
0.1875 0.96875 1.2997
0.21875 0.96875 1.309
0.21875 0.953125 1.36738
0.1875 0.953125 1.35379
0.25 0.953125 1.38135
0.25 0.984375 1.25633
0.21875 0.984375 1.25115
0.1875 0.875 1.60185
0.25 0.875 1.66785
0.25 0.9375 1.44471
0.1875 0.9375 1.40839
0.21875 0.875 1.63438
0.25 0.90625 1.55407
0.21875 0.9375 1.4263
0.1875 0.90625 1.50327
0.21875 0.90625 1.52832
0.125 0.875 1.51328
0.1875 0.875 1.60185
0.1875 0.9375 1.40839
0.125 0.9375 1.34742
0.15625 0.875 1.55689
0.1875 0.90625 1.50327
0.15625 0.9375 1.37747
0.125 0.90625 1.42885
0.15625 0.90625 1.46551
0.125 0.8125 1.67056
0.1875 0.8125 1.78006
0.1875 0.875 1.60185
0.125 0.875 1.51328
0.15625 0.8125 1.7244
0.1875 0.84375 1.68953
0.15625 0.875 1.55689
0.125 0.84375 1.59077
0.15625 0.84375 1.63936
0.1875 0.8125 1.78006
0.25 0.8125 1.86612
0.25 0.875 1.66785
0.1875 0.875 1.60185
0.21875 0.8125 1.82243
0.25 0.84375 1.76531
0.21875 0.875 1.63438
0.1875 0.84375 1.68953
0.21875 0.84375 1.72687
0.1875 0.75 1.94427
0.25 0.75 2.0452
0.25 0.8125 1.86612
0.1875 0.8125 1.78006
0.21875 0.75 1.99394
0.25 0.78125 1.95424
0.21875 0.8125 1.82243
0.1875 0.78125 1.86091
0.21875 0.78125 1.90685
0.125 0.75 1.81513
0.1875 0.75 1.94427
0.1875 0.8125 1.78006
0.125 0.8125 1.67056
0.15625 0.75 1.87856
0.1875 0.78125 1.86091
0.15625 0.8125 1.7244
0.125 0.78125 1.74182
0.15625 0.78125 1.80034
0 0.8125 1.44837
0.0625 0.8125 1.51931
0.0625 0.875 1.3825
0 0.875 1.3249
0.03125 0.8125 1.48353
0.0625 0.84375 1.44998
0.03125 0.875 1.35345
0 0.84375 1.38581
0.03125 0.84375 1.41762
0.0625 0.8125 1.51931
0.125 0.8125 1.67056
0.125 0.875 1.51328
0.0625 0.875 1.3825
0.09375 0.8125 1.59343
0.125 0.84375 1.59077
0.09375 0.875 1.44667
0.0625 0.84375 1.44998
0.09375 0.84375 1.51902
0.0625 0.75 1.64375
0.125 0.75 1.81513
0.125 0.8125 1.67056
0.0625 0.8125 1.51931
0.09375 0.75 1.72764
0.125 0.78125 1.74182
0.09375 0.8125 1.59343
0.0625 0.78125 1.58071
0.09375 0.78125 1.65962
0 0.75 1.56196
0.0625 0.75 1.64375
0.0625 0.8125 1.51931
0 0.8125 1.44837
0.03125 0.75 1.60249
0.0625 0.78125 1.58071
0.03125 0.8125 1.48353
0 0.78125 1.50442
0.03125 0.78125 1.54223
0.25 0.9375 1.44471
0.3125 0.9375 1.46909
0.3125 1 1.18758
0.25 1 1.19466
0.28125 0.9375 1.45672
0.3125 0.96875 1.32707
0.28125 1 1.19117
0.25 0.96875 1.31856
0.28125 0.96875 1.32276
0.3125 0.9375 1.46909
0.375 0.9375 1.48578
0.375 1 1.17561
0.3125 1 1.18758
0.34375 0.9375 1.47731
0.375 0.96875 1.32926
0.34375 1 1.18168
0.3125 0.96875 1.32707
0.34375 0.96875 1.32815
0.3125 0.875 1.72524
0.375 0.875 1.7778
0.375 0.9375 1.48578
0.3125 0.9375 1.46909
0.34375 0.875 1.7511
0.375 0.90625 1.62861
0.34375 0.9375 1.47731
0.3125 0.90625 1.59451
0.34375 0.90625 1.6113
0.25 0.875 1.66785
0.3125 0.875 1.72524
0.3125 0.9375 1.46909
0.25 0.9375 1.44471
0.28125 0.875 1.69612
0.3125 0.90625 1.59451
0.28125 0.9375 1.45672
0.25 0.90625 1.55407
0.28125 0.90625 1.574
0.375 0.9375 1.48578
0.4375 0.9375 1.50345
0.4375 1 1.16418
0.375 1 1.17561
0.40625 0.9375 1.49447
0.4375 0.96875 1.33213
0.40625 1 1.16998
0.375 0.96875 1.32926
0.40625 0.96875 1.33067
0.4375 0.9375 1.50345
0.5 0.9375 1.53789
0.5 1 1.16068
0.4375 1 1.16418
0.46875 0.9375 1.52035
0.5 0.96875 1.34728
0.46875 1 1.16246
0.4375 0.96875 1.33213
0.46875 0.96875 1.33956
0.4375 0.875 1.83324
0.5 0.875 1.90889
0.5 0.9375 1.53789
0.4375 0.9375 1.50345
0.46875 0.875 1.87029
0.5 0.90625 1.71876
0.46875 0.9375 1.52035
0.4375 0.90625 1.66452
0.46875 0.90625 1.69111
0.46875 0.890625 1.77961
0.4375 0.890625 1.74789
0.5 0.890625 1.81262
0.5 0.921875 1.62721
0.46875 0.921875 1.60471
0.4375 0.921875 1.58306
0.375 0.875 1.7778
0.4375 0.875 1.83324
0.4375 0.9375 1.50345
0.375 0.9375 1.48578
0.40625 0.875 1.80503
0.4375 0.90625 1.66452
0.40625 0.9375 1.49447
0.375 0.90625 1.62861
0.40625 0.90625 1.64626
0.40625 0.890625 1.72475
0.375 0.890625 1.70239
0.4375 0.890625 1.74789
0.375 0.8125 2.02915
0.4375 0.8125 2.11919
0.4375 0.875 1.83324
0.375 0.875 1.7778
0.40625 0.8125 2.07331
0.4375 0.84375 1.97332
0.40625 0.875 1.80503
0.375 0.84375 1.90111
0.40625 0.84375 1.93655
0.4375 0.8125 2.11919
0.5 0.8125 2.2329
0.5 0.875 1.90889
0.4375 0.875 1.83324
0.46875 0.8125 2.17477
0.5 0.84375 2.06731
0.46875 0.875 1.87029
0.4375 0.84375 1.97332
0.46875 0.84375 2.0193
0.484375 0.8125 2.2035
0.5 0.828125 2.14918
0.484375 0.84375 2.04304
0.46875 0.828125 2.0962
0.484375 0.828125 2.1224
0.4375 0.75 2.35334
0.5 0.75 2.492
0.5 0.8125 2.2329
0.4375 0.8125 2.11919
0.46875 0.75 2.42104
0.5 0.78125 2.36004
0.46875 0.8125 2.17477
0.4375 0.78125 2.23421
0.46875 0.78125 2.29568
0.375 0.75 2.24089
0.4375 0.75 2.35334
0.4375 0.8125 2.11919
0.375 0.8125 2.02915
0.40625 0.75 2.29599
0.4375 0.78125 2.23421
0.40625 0.8125 2.07331
0.375 0.78125 2.13324
0.40625 0.78125 2.18274
0.25 0.8125 1.86612
0.3125 0.8125 1.94721
0.3125 0.875 1.72524
0.25 0.875 1.66785
0.28125 0.8125 1.90602
0.3125 0.84375 1.83426
0.28125 0.875 1.69612
0.25 0.84375 1.76531
0.28125 0.84375 1.79926
0.3125 0.8125 1.94721
0.375 0.8125 2.02915
0.375 0.875 1.7778
0.3125 0.875 1.72524
0.34375 0.8125 1.98748
0.375 0.84375 1.90111
0.34375 0.875 1.7511
0.3125 0.84375 1.83426
0.34375 0.84375 1.86714
0.3125 0.75 2.1409
0.375 0.75 2.24089
0.375 0.8125 2.02915
0.3125 0.8125 1.94721
0.34375 0.75 2.19001
0.375 0.78125 2.13324
0.34375 0.8125 1.98748
0.3125 0.78125 2.04248
0.34375 0.78125 2.08707
0.25 0.75 2.0452
0.3125 0.75 2.1409
0.3125 0.8125 1.94721
0.25 0.8125 1.86612
0.28125 0.75 2.09228
0.3125 0.78125 2.04248
0.28125 0.8125 1.90602
0.25 0.78125 1.95424
0.28125 0.78125 1.99766
0.25 0.6875 2.21228
0.3125 0.6875 2.31864
0.3125 0.75 2.1409
0.25 0.75 2.0452
0.28125 0.6875 2.2646
0.3125 0.71875 2.22842
0.28125 0.75 2.09228
0.25 0.71875 2.12748
0.28125 0.71875 2.17713
0.3125 0.6875 2.31864
0.375 0.6875 2.42872
0.375 0.75 2.24089
0.3125 0.75 2.1409
0.34375 0.6875 2.37271
0.375 0.71875 2.33338
0.34375 0.75 2.19001
0.3125 0.71875 2.22842
0.34375 0.71875 2.27998
0.3125 0.625 2.48528
0.375 0.625 2.60309
0.375 0.6875 2.42872
0.3125 0.6875 2.31864
0.34375 0.625 2.54321
0.375 0.65625 2.51492
0.34375 0.6875 2.37271
0.3125 0.65625 2.40094
0.34375 0.65625 2.45696
0.25 0.625 2.36752
0.3125 0.625 2.48528
0.3125 0.6875 2.31864
0.25 0.6875 2.21228
0.28125 0.625 2.42548
0.3125 0.65625 2.40094
0.28125 0.6875 2.2646
0.25 0.65625 2.2889
0.28125 0.65625 2.34403
0.375 0.6875 2.42872
0.4375 0.6875 2.55198
0.4375 0.75 2.35334
0.375 0.75 2.24089
0.40625 0.6875 2.48912
0.4375 0.71875 2.45115
0.40625 0.75 2.29599
0.375 0.71875 2.33338
0.40625 0.71875 2.39109
0.4375 0.6875 2.55198
0.5 0.6875 2.7011
0.5 0.75 2.492
0.4375 0.75 2.35334
0.46875 0.6875 2.62478
0.5 0.71875 2.59496
0.46875 0.75 2.42104
0.4375 0.71875 2.45115
0.46875 0.71875 2.52136
0.4375 0.625 2.73097
0.5 0.625 2.88079
0.5 0.6875 2.7011
0.4375 0.6875 2.55198
0.46875 0.625 2.80422
0.5 0.65625 2.79019
0.46875 0.6875 2.62478
0.4375 0.65625 2.64058
0.46875 0.65625 2.71367
0.375 0.625 2.60309
0.4375 0.625 2.73097
0.4375 0.6875 2.55198
0.375 0.6875 2.42872
0.40625 0.625 2.66584
0.4375 0.65625 2.64058
0.40625 0.6875 2.48912
0.375 0.65625 2.51492
0.40625 0.65625 2.57654
0.375 0.5625 2.7604
0.4375 0.5625 2.89115
0.4375 0.625 2.73097
0.375 0.625 2.60309
0.4375 0.5625 2.89115
0.5 0.5625 3.03687
0.5 0.625 2.88079
0.4375 0.625 2.73097
0.46875 0.5625 2.96271
0.5 0.59375 2.95905
0.46875 0.625 2.80422
0.4375 0.59375 2.81094
0.46875 0.59375 2.88351
0.4375 0.5 3.01871
0.5 0.5 3.15711
0.5 0.5625 3.03687
0.4375 0.5625 2.89115
0.46875 0.5 3.08714
0.5 0.53125 3.09783
0.46875 0.5625 2.96271
0.4375 0.53125 2.95539
0.46875 0.53125 3.02558
0.375 0.5 2.88605
0.4375 0.5 3.01871
0.4375 0.5625 2.89115
0.375 0.5625 2.7604
[...]
POINT_DATA 10376
SCALARS "velocity_x" float 1
LOOKUP_TABLE default
1.18954
1.23686
1.11529
1.15861
1.21301
1.17556
1.13695
1.17406
1.17481
1.20123
1.19387
1.17444
1.1818
1.18782
1.22489
1.20608
1.17518
1.19996
1.14529
1.15584
1.16039
1.16531
1.13026
1.14638
1.16633
1.16109
1.1702
1.16776
1.14778
1.16247
1.15443
1.23686
1.34742
1.17234
1.11529
1.29115
1.25904
1.14334
1.17556
1.21658
1.26377
1.2537
1.19589
1.20608
1.22968
1.31903
1.30302
1.23762
1.27814
1.21548
1.15772
1.17979
1.19748
1.12919
1.14529
1.1624
1.3825
1.51328
1.34742
1.23686
1.44667
1.42885
1.29115
1.30842
1.36753
1.3249
1.3825
1.23686
1.18954
1.35345
1.30842
1.21301
1.25609
1.28204
1.34742
1.40839
1.19302
1.17234
1.37747
1.2997
1.18253
1.25904
1.27908
1.36234
1.32804
1.26899
1.30302
1.31544
1.39282
1.35379
1.28931
1.34082
1.24611
1.18774
1.23058
1.23829
1.1774
1.21548
1.22298
1.40839
1.44471
1.19466
1.19302
1.4263
1.31856
1.19383
1.2997
1.309
1.36738
1.35379
1.38135
1.25633
1.25115
1.60185
1.66785
1.44471
1.40839
1.63438
1.55407
1.4263
1.50327
1.52832
1.51328
1.60185
1.40839
1.34742
1.55689
1.50327
1.37747
1.42885
1.46551
1.67056
1.78006
1.60185
1.51328
1.7244
1.68953
1.55689
1.59077
1.63936
1.78006
1.86612
1.66785
1.60185
1.82243
1.76531
1.63438
1.68953
1.72687
1.94427
2.0452
1.86612
1.78006
1.99394
1.95424
1.82243
1.86091
1.90685
1.81513
1.94427
1.78006
1.67056
1.87856
1.86091
1.7244
1.74182
1.80034
1.44837
1.51931
1.3825
1.3249
1.48353
1.44998
1.35345
1.38581
1.41762
1.51931
1.67056
1.51328
1.3825
1.59343
1.59077
1.44667
1.44998
1.51902
1.64375
1.81513
1.67056
1.51931
1.72764
1.74182
1.59343
1.58071
1.65962
1.56196
1.64375
1.51931
1.44837
1.60249
1.58071
1.48353
1.50442
1.54223
1.44471
1.46909
1.18758
1.19466
1.45672
1.32707
1.19117
1.31856
1.32276
1.46909
1.48578
1.17561
1.18758
1.47731
1.32926
1.18168
1.32707
1.32815
1.72524
1.7778
1.48578
1.46909
1.7511
1.62861
1.47731
1.59451
1.6113
1.66785
1.72524
1.46909
1.44471
1.69612
1.59451
1.45672
1.55407
1.574
1.48578
1.50345
1.16418
1.17561
1.49447
1.33213
1.16998
1.32926
1.33067
1.50345
1.53789
1.16068
1.16418
1.52035
1.34728
1.16246
1.33213
1.33956
1.83324
1.90889
1.53789
1.50345
1.87029
1.71876
1.52035
1.66452
1.69111
1.77961
1.74789
1.81262
1.62721
1.60471
1.58306
1.7778
1.83324
1.50345
1.48578
1.80503
1.66452
1.49447
1.62861
1.64626
1.72475
1.70239
1.74789
2.02915
2.11919
1.83324
1.7778
2.07331
1.97332
1.80503
1.90111
1.93655
2.11919
2.2329
1.90889
1.83324
2.17477
2.06731
1.87029
1.97332
2.0193
2.2035
2.14918
2.04304
2.0962
2.1224
2.35334
2.492
2.2329
2.11919
2.42104
2.36004
2.17477
2.23421
2.29568
2.24089
2.35334
2.11919
2.02915
2.29599
2.23421
2.07331
2.13324
2.18274
1.86612
1.94721
1.72524
1.66785
1.90602
1.83426
1.69612
1.76531
1.79926
1.94721
2.02915
1.7778
1.72524
1.98748
1.90111
1.7511
1.83426
1.86714
2.1409
2.24089
2.02915
1.94721
2.19001
2.13324
1.98748
2.04248
2.08707
2.0452
2.1409
1.94721
1.86612
2.09228
2.04248
1.90602
1.95424
1.99766
2.21228
2.31864
2.1409
2.0452
2.2646
2.22842
2.09228
2.12748
2.17713
2.31864
2.42872
2.24089
2.1409
2.37271
2.33338
2.19001
2.22842
2.27998
2.48528
2.60309
2.42872
2.31864
2.54321
2.51492
2.37271
2.40094
2.45696
2.36752
2.48528
2.31864
2.21228
2.42548
2.40094
2.2646
2.2889
2.34403
2.42872
2.55198
2.35334
2.24089
2.48912
2.45115
2.29599
2.33338
2.39109
2.55198
2.7011
2.492
2.35334
2.62478
2.59496
2.42104
2.45115
2.52136
2.73097
2.88079
2.7011
2.55198
2.80422
2.79019
2.62478
2.64058
2.71367
2.60309
2.73097
2.55198
2.42872
2.66584
2.64058
2.48912
2.51492
2.57654
2.7604
2.89115
2.73097
2.60309
2.89115
3.03687
2.88079
2.73097
2.96271
2.95905
2.80422
2.81094
2.88351
3.01871
3.15711
3.03687
2.89115
3.08714
3.09783
2.96271
2.95539
3.02558
2.88605
3.01871
2.89115
2.7604
2.50256
2.63391
2.48528
2.36752
2.63391
2.7604
2.60309
2.48528
2.75023
2.88605
2.7604
2.63391
2.60447
2.75023
2.63391
2.50256
1.66954
1.7589
1.64375
1.56196
1.7589
1.94808
1.81513
1.64375
1.85141
1.88069
1.72764
1.70059
1.7887
1.86355
2.06751
1.94808
1.7589
1.96322
2.00707
1.85141
1.81062
1.90665
1.76821
1.86355
1.7589
1.66954
1.94808
2.09694
1.94427
1.81513
2.02112
2.01948
1.87856
1.88069
1.94882
2.09694
2.21228
2.0452
1.94427
2.15369
2.12748
1.99394
2.01948
2.07262
2.23598
2.36752
2.21228
2.09694
2.30069
2.2889
2.15369
2.16557
2.22624
2.06751
2.23598
2.09694
1.94808
2.15012
2.16557
2.02112
2.00707
2.08481
2.16714
2.35352
2.23598
2.06751
2.25854
2.2942
2.15012
2.11686
2.20382
2.35352
2.50256
2.36752
2.23598
2.42689
2.43445
2.30069
2.2942
2.36322
2.4389
2.60447
2.50256
2.35352
2.52053
2.55335
2.42689
2.39601
2.47352
2.23879
2.4389
2.35352
2.16714
2.33702
2.39601
2.25854
2.20276
2.29757
1.85293
1.95254
1.86355
1.76821
1.95254
2.16714
2.06751
1.86355
2.05743
2.11686
1.96322
1.90762
2.00988
2.01942
2.23879
2.16714
1.95254
2.12677
2.20276
2.05743
1.98575
2.09188
1.9181
2.01942
1.95254
1.85293
1.53789
1.61893
1.17862
1.16068
1.57747
1.3963
1.16945
1.34728
1.37123
1.61893
1.79501
1.19272
1.17862
1.70368
1.49034
1.18541
1.3963
1.44157
1.66052
1.57187
1.41852
1.50698
1.53883
1.74847
1.64178
1.46549
1.60616
1.34066
1.189
1.31276
1.32645
1.18195
1.28685
1.29957
2.04156
2.30181
1.79501
1.61893
2.16674
2.04137
1.70368
1.82449
1.92884
2.10298
2.04613
1.8757
1.93153
1.98777
2.23297
2.16975
1.98403
2.10675
1.9165
1.74847
1.81473
1.86464
1.66052
1.72033
1.76666
1.90889
2.04156
1.61893
1.53789
1.97354
1.82449
1.57747
1.71876
1.77035
2.00711
1.93153
1.79709
1.8706
1.90068
1.79501
2.34403
1.5196
1.19272
2.04872
1.91143
1.34993
1.49034
1.68901
1.91724
1.86617
1.58695
1.64178
1.75039
1.98176
1.95676
1.80735
1.83338
1.894
2.19056
2.12225
1.797
1.98985
2.11827
2.08919
1.92697
2.02178
2.26575
2.23172
2.0549
2.15912
2.01552
1.85337
1.89247
1.95301
1.74223
1.77694
1.83381
1.71079
1.43312
1.51701
1.61156
1.80989
1.66057
1.70338
1.75592
1.26986
1.34066
1.42681
2.34403
3.45278
2.58977
1.5196
2.76742
3.07896
1.84013
1.91143
2.30982
2.53336
2.08334
2.43394
2.30579
1.99187
2.12225
2.20876
2.38789
2.32029
2.1643
2.23172
2.27484
2.48237
2.41892
2.25584
2.36824
2.09931
1.9504
2.01552
2.05618
2.64386
2.5401
2.18825
2.41537
2.58711
2.52944
2.35886
2.47256
2.70386
2.47565
2.24672
3.06419
2.62181
2.90649
2.84965
2.45236
2.68338
2.83484
2.79589
2.60917
2.65413
2.72266
2.98278
2.95851
2.7633
2.87432
2.73747
2.53327
2.56888
2.64965
2.37815
2.42534
2.49434
3.24454
3.27758
2.82656
3.04494
3.15124
3.14693
2.94321
3.04912
3.34478
3.36784
3.15595
3.25282
3.39776
3.41095
3.30912
3.29939
3.35405
3.32341
3.21535
3.20503
3.2629
3.18148
2.94583
2.93826
3.05377
3.09921
3.10555
2.9946
2.99221
3.04756
3.2303
3.11598
3.1664
3.13106
3.01051
3.00055
3.06405
2.8846
2.88306
2.9403
2.71912
2.83329
2.12096
2.37939
1.96491
2.07652
2.21303
2.33376
2.14157
2.19355
2.26056
2.50251
2.2919
2.41405
2.25228
2.03833
2.09009
2.1667
1.89923
1.95872
2.02113
2.85188
2.32177
2.58663
2.70949
2.47702
2.60045
2.65347
2.6488
2.53019
2.53935
2.59251
2.96935
2.71058
2.83162
2.88954
2.76877
2.76872
2.82744
3.02508
2.89835
2.95531
2.91165
2.77884
2.77199
2.83956
2.64664
2.70852
2.72569
2.44542
2.45755
2.58208
2.64731
2.51768
2.52289
2.58305
2.78994
2.65124
2.7161
2.65902
2.5147
2.51482
2.58415
2.3813
2.39053
2.45045
2.21465
2.34852
2.40128
2.41342
2.46646
2.26636
2.28228
2.3346
1.6531
1.86583
1.5812
1.71079
1.78283
1.7381
1.9625
2.01706
1.78668
2.84939
3.72288
3.45278
2.34403
3.22494
3.59846
2.76742
2.59143
3.00066
3.02488
2.77853
2.93435
2.90155
2.68114
2.71905
2.80698
3.12152
2.88463
3.17234
3.11389
2.94132
3.00355
3.05762
3.45516
3.26869
3.33587
3.36402
3.12809
3.23363
3.39441
3.4101
3.29741
3.28515
3.34637
3.3169
3.19662
3.18128
3.2475
3.17251
3.06285
3.05755
3.11803
3.58378
3.66303
3.42459
3.50656
3.51823
3.54574
3.43367
3.4765
3.65194
3.69351
3.58293
3.61801
3.63137
3.5091
3.4662
3.54665
3.34457
3.38971
3.06419
3.16885
2.90649
2.88519
3.0191
3.07404
2.95033
2.94321
3.00695
3.21935
3.09183
3.14474
3.11715
2.98278
2.96326
3.03785
2.83484
3.52861
3.24454
3.33742
3.38169
3.25057
3.29821
3.56424
3.42991
3.47021
3.49149
3.34478
3.29173
3.38813
3.15124
3.2016
2.53336
2.43394
2.63538
2.5568
2.38789
2.46645
2.51062
2.64386
2.70386
2.76473
2.82341
2.30181
2.84939
2.34403
1.79501
2.55673
2.59143
2.04872
2.04137
2.29648
2.42502
2.42499
2.16447
2.16975
2.29301
2.69784
2.71905
2.43842
2.56663
2.46645
2.19056
2.1711
2.31309
1.91724
1.9165
2.03925
2.68503
3.16463
2.84939
2.30181
2.91073
3.0047
2.55673
2.48867
2.73018
2.79466
2.81954
2.60568
2.58562
2.6991
3.03383
2.86291
2.97136
2.94762
2.79547
2.88258
3.09822
3.08407
2.93262
3.01475
2.69784
2.77966
2.62605
2.6426
2.70997
2.92648
2.77224
2.85179
2.42502
2.39409
2.51435
3.16463
3.84609
3.72288
2.84939
3.47326
3.78645
3.22494
3.0047
3.34984
3.312
3.16773
3.23669
3.23969
3.08402
3.08407
3.15998
3.39078
3.2562
3.65046
3.55458
3.55972
3.44912
3.7458
3.6668
3.69753
3.70678
3.6098
3.60295
3.65413
3.7953
3.81674
3.72565
3.76096
3.45516
3.33587
3.50104
3.50532
3.39441
3.39283
3.44813
3.58378
3.62581
3.51823
3.56451
3.75518
3.65194
3.68932
3.02488
2.93435
3.12152
3.36727
3.90862
3.84609
3.16463
3.61865
3.8777
3.47326
3.26475
3.54587
3.48864
3.39973
3.42693
3.33093
3.5525
3.47131
3.75827
3.70462
3.68719
3.62357
3.83203
3.78926
3.65046
3.55972
3.7458
3.312
3.23669
3.39078
2.95839
3.36727
3.16463
2.68503
3.15232
3.26475
2.91073
2.81909
3.02963
3.05293
3.09049
2.92153
2.88807
2.98665
3.25696
3.14386
3.03383
3.20344
3.2144
3.09822
3.08847
3.1505
2.79466
2.2329
2.40257
2.04156
1.90889
2.31538
2.21763
1.97354
2.06731
2.14047
2.40257
2.68503
2.30181
2.04156
2.53841
2.48867
2.16674
2.21763
2.34799
2.61029
2.58562
2.41696
2.44201
2.51242
2.68122
2.95839
2.68503
2.40257
2.8146
2.81909
2.53841
2.53913
2.67381
2.88512
2.88807
2.74504
2.74351
2.8144
2.75142
2.61029
2.60545
2.67702
2.492
2.68122
2.40257
2.2329
2.58387
2.53913
2.31538
2.36004
2.44705
3.45278
4.85593
5.29988
2.58977
3.93011
5.00488
3.27839
3.07896
3.66725
3.65856
3.81026
3.3252
3.27758
3.50413
3.54904
3.58408
3.38298
3.36784
3.46873
3.78429
3.87271
3.64484
3.71725
3.71918
3.7514
3.64819
3.62197
3.68433
3.85439
3.902
3.79186
3.82375
3.84216
3.72407
3.68176
3.75866
3.57175
3.54483
3.61069
3.74205
3.48106
3.41808
3.56637
3.60641
3.48922
3.46191
3.53129
3.77693
3.65034
3.688
3.70553
3.56984
3.52463
3.61099
3.39983
3.37254
3.44543
3.19281
3.18148
3.29123
3.44137
3.35227
3.33789
3.39762
3.25642
3.2429
3.30524
4.30496
4.17453
4.10126
4.24686
3.89356
4.00754
4.01212
4.05658
3.90437
3.96063
4.19849
4.27741
4.12115
4.16171
4.21278
4.02604
3.95347
4.07618
4.18237
4.23029
4.1426
4.09926
4.16303
4.19422
4.09811
4.05181
4.12099
3.77462
3.84265
4.55149
4.91988
4.53268
4.54324
4.42207
4.38671
4.36209
4.40536
4.31487
4.33974
4.48512
4.54761
4.46271
4.47455
4.69527
4.71962
4.62144
4.70669
4.62872
4.62486
4.77331
4.8858
4.81648
4.79351
4.75137
4.73438
4.63814
4.53831
4.63311
4.95915
4.87327
4.8428
4.3421
4.36577
4.2557
4.28705
4.43422
4.44937
3.95954
4.08203
3.57122
3.49363
3.75193
3.82679
3.61536
3.58485
3.69927
3.76126
3.79047
3.68162
3.65847
3.72258
4.13129
3.90626
3.9698
3.95797
3.99875
3.89619
3.8611
3.92796
4.15359
4.04802
4.07383
4.10749
3.99119
3.93903
4.02053
3.82667
3.86249
4.02537
3.75075
3.66741
3.8339
3.87129
3.74785
3.71099
3.78853
4.05472
3.92617
3.95981
3.99374
3.85106
3.79382
3.89002
3.65772
3.62092
3.70434
3.41522
3.3921
3.52132
3.55279
3.56971
3.45479
3.44426
3.50518
3.59206
3.63819
3.49058
3.46992
3.54295
3.34464
3.3369
3.40137
5.12334
4.49916
4.51866
4.28404
4.3151
4.1794
4.22013
4.5262
4.3968
4.41687
4.79446
4.77115
4.65076
4.64395
5.0588
4.95135
4.90897
4.98229
5.08956
5.03533
4.92921
5.00759
4.85631
4.82235
4.66859
4.50978
4.65884
4.73867
4.83846
4.75999
4.66348
4.74879
5.20197
5.06545
5.0025
4.87115
4.97567
4.91019
4.80776
4.88973
5.16062
5.09963
5.06586
5.2481
5.17923
5.03226
5.1372
4.95798
4.93282
4.2054
4.24792
4.07725
4.13231
4.34546
4.37331
4.44007
4.50471
4.42048
4.36
4.43072
4.30932
4.27384
4.22756
4.29235
2.86612
2.85188
3.11544
3.22465
2.97286
2.96935
3.08698
3.27594
3.153
3.14087
3.20571
3.1712
3.0411
3.03101
3.09818
3.02594
2.90999
2.91165
2.96903
3.28599
3.38797
3.43556
3.30268
3.35228
3.62707
3.4816
3.52676
3.54043
3.38446
3.33817
3.43423
3.19673
3.25088
3.04969
2.99639
3.17377
3.23125
3.08072
3.05723
3.14007
3.27697
3.33211
3.15742
3.11333
3.21883
2.95314
2.93276
3.01848
2.71554
2.72569
2.84944
2.91238
2.78502
2.78994
2.8487
2.91963
2.98164
2.78729
2.78388
2.8549
2.64995
2.65902
2.71883
4.85593
6.05642
6.24788
5.29988
5.30469
6.13569
5.73138
5.00488
5.46137
5.05517
5.37385
5.21307
4.91988
5.12382
4.95026
5.08739
5.01692
4.8858
4.98147
5.17252
5.33735
5.24215
5.2053
5.41488
5.33152
5.16533
5.28387
5.1046
4.95915
5.05756
5.62628
5.7626
5.45465
5.68758
5.60436
5.52132
5.37723
5.48626
5.44544
5.4095
5.53747
5.65546
5.60188
5.56807
5.7231
5.68143
5.56044
5.63945
5.5311
5.4857
5.82461
6.09292
5.93864
5.87646
5.72173
5.84941
5.77891
5.74901
5.93582
6.07397
5.98088
5.95743
6.11342
6.03431
5.90608
6.00641
5.84821
5.81182
6.18651
5.97751
5.5757
5.85652
5.80677
5.71068
5.51447
5.65404
6.15996
6.01459
5.97463
5.95618
5.88867
5.78405
5.86789
6.06494
6.17293
6.09871
5.99407
6.0814
6.21568
6.10945
5.91295
6.05924
6.20075
6.13613
6.03628
6.11693
5.85162
5.64709
5.77584
5.50637
5.12334
5.33384
5.26856
5.22506
5.0588
5.15968
5.45042
5.38643
5.61641
5.41175
5.52594
5.40096
5.20197
5.30394
5.35708
5.45666
5.45311
5.34981
5.40257
5.25225
5.3499
5.2481
5.29834
4.70486
5.57628
6.05642
4.85593
5.05922
5.74918
5.30469
4.76415
5.15243
4.86691
5.10082
4.93971
4.73163
4.89961
4.78257
4.88247
4.812
4.71763
4.79659
4.95878
5.07896
4.99547
4.97621
5.12516
5.04073
4.91858
5.01685
4.84792
4.74706
4.82902
5.29113
5.65212
5.41549
5.34621
5.16949
5.31718
5.21713
5.19206
5.42596
5.61201
5.49028
5.45633
5.69748
5.57184
5.37875
5.5285
5.27661
5.24513
5.87781
5.62628
5.21815
5.50529
5.4573
5.35299
5.18319
5.31227
5.80866
5.67866
5.62141
5.71185
5.84189
5.77467
5.64897
5.74206
5.95921
5.82461
5.56095
5.74551
5.58907
5.71074
5.64997
5.53205
5.61833
5.91679
5.8483
5.80997
6.00556
5.93582
5.78333
5.89009
5.72173
5.59225
5.68432
5.45465
5.25824
5.39994
5.05517
4.80451
4.99006
4.96338
4.89275
4.78319
4.86903
5.09793
5.06756
5.17252
5.02039
5.13259
4.95026
4.82857
4.91961
3.72288
4.70486
4.85593
3.45278
4.12088
4.76415
3.93011
3.59846
4.0379
3.90466
3.79411
3.81
3.85206
3.69121
3.66303
3.75315
4.00788
4.08193
3.90895
3.96111
4.38233
4.35009
4.24511
4.36745
4.18377
4.21654
4.28978
4.26411
4.53469
4.5415
4.45646
4.53781
4.44232
4.44997
4.61736
4.73163
4.64847
4.63149
4.30496
4.32958
4.10126
3.98776
4.14579
4.10852
4.1655
4.0639
4.01367
4.08701
4.23408
4.19849
4.12444
4.01212
3.95997
4.03901
4.55149
4.54598
4.42207
4.43318
4.80451
4.69527
4.66924
3.65856
3.72996
3.54904
3.52861
3.62346
3.78429
3.85042
3.91676
3.85439
3.81839
3.88663
6.05642
6.73407
6.82434
6.24788
6.34582
6.77668
6.52769
6.13569
6.4259
6.19128
6.3836
6.27425
6.09292
6.22993
6.52467
6.59259
6.43186
6.55718
6.50722
6.46767
6.62508
6.75479
6.68229
6.65268
6.79983
6.67382
6.47356
6.63131
6.38577
6.18651
6.32559
6.73407
7.03977
7.08668
6.82434
6.87945
7.06302
6.95528
6.77668
6.91611
6.22744
6.68333
7.03977
6.73407
6.42799
6.82504
6.87945
6.4117
6.59912
6.32203
6.50432
6.50124
6.30852
6.4014
6.45151
6.54902
6.54907
6.4483
6.49742
6.3538
6.4555
6.35682
6.40149
6.5475
6.7476
6.70656
6.61901
6.48589
6.58154
6.56007
6.4642
6.52114
6.61317
6.71404
6.68141
6.64571
6.78443
6.76432
6.66046
6.72075
6.65156
6.6033
6.92015
6.9576
6.72
6.81623
6.75814
6.76721
6.65567
6.7058
6.87003
6.86717
6.81283
6.97634
6.88215
6.79384
6.54745
6.63065
6.47461
6.56149
6.80502
6.63277
6.71087
5.57628
6.22744
6.73407
6.05642
5.85189
6.4117
6.34582
5.74918
6.03051
5.70426
5.93034
5.87999
5.65212
5.78139
5.63807
5.74061
5.71455
5.61201
5.6741
5.77535
5.88887
5.85314
5.81201
5.97719
5.95252
5.82748
5.8996
5.81237
5.69748
5.76027
6.02405
6.30852
6.20557
6.10385
5.93453
6.06168
6.01366
5.97184
6.12134
6.26568
6.20179
6.15928
6.35682
6.30426
6.15144
6.24974
6.11461
6.06088
6.54745
6.52467
6.16285
6.33971
6.26769
6.24786
6.09176
6.17631
6.47461
6.43923
6.36679
6.63277
6.62508
6.42419
6.52416
6.43186
6.24635
6.33187
6.19128
5.87781
6.01047
5.94035
5.94192
5.80866
5.87229
6.08393
6.01332
6.26583
6.09293
6.16691
6.12163
5.95921
6.02385
5.30676
5.8863
6.22744
5.57628
5.55986
6.0266
5.85189
5.4212
5.68218
5.42578
5.61643
5.54328
5.35997
5.48027
5.71205
5.95073
5.84164
5.77179
5.79613
5.91725
5.85799
5.7408
5.82587
5.98705
5.93056
5.8053
5.89277
6.11724
6.02405
5.75954
5.92441
5.75906
5.8812
5.83887
5.71922
5.79724
6.06981
6.0169
5.97178
6.16952
6.12134
5.97182
6.06652
5.93453
5.80358
5.88444
5.70426
5.49242
5.61695
5.68575
5.77535
5.65868
5.72853
5.8863
6.32819
6.68333
6.22744
6.0832
6.47227
6.42799
6.0266
6.22415
5.97967
6.14779
6.12007
5.95073
6.04408
6.19865
6.39403
6.34075
6.26367
6.56681
6.5475
6.31584
6.43357
6.28075
6.3849
6.37294
6.26781
6.32462
6.40447
6.5172
6.49806
6.44897
6.62187
6.61317
6.48747
6.55249
6.48589
6.36895
6.42641
6.32203
6.11724
6.21107
6.26198
6.37346
6.26367
6.3148
6.1629
6.27343
6.16952
6.21531
5.62036
6.03238
6.32819
5.8863
5.80749
6.16221
6.0832
5.73936
5.9298
5.70983
5.86538
5.83008
5.67689
5.76685
5.91453
6.09356
6.03994
5.97376
6.2398
6.19865
6.00192
6.11435
5.97967
5.80876
5.90058
5.1046
5.62036
5.8863
5.30676
5.33634
5.73936
5.55986
5.19762
5.43794
5.21488
5.38493
5.31136
5.14933
5.26116
5.47077
5.67689
5.57964
5.52267
5.80876
5.71205
5.49599
5.64245
5.42578
5.24992
5.36603
3.84609
4.60334
4.70486
3.72288
4.17757
4.64912
4.12088
3.78645
4.15092
4.00211
3.95558
3.92188
3.86808
4.08719
4.0496
4.37632
4.37909
4.27375
4.26041
4.48593
4.50818
4.38233
4.24511
4.53469
3.90466
3.81
4.00788
4.60334
5.30676
5.57628
4.70486
4.90769
5.4212
5.05922
4.64912
4.97434
4.74592
4.79986
5.09282
5.17867
4.99703
5.13304
5.07231
4.93913
5.03243
5.19578
5.35997
5.29452
5.24188
5.29113
5.23085
5.16949
5.01406
5.11761
5.49242
5.42596
5.35521
4.86691
4.88379
4.95878
4.83146
4.91902
4.51517
5.1046
5.30676
4.60334
4.78009
5.19762
4.90769
4.55724
4.84001
4.64126
4.69082
4.93371
5.00772
5.09282
5.09963
5.24992
5.19578
5.04874
5.14585
4.74592
3.90862
4.51517
4.60334
3.84609
4.18449
4.55724
4.17757
3.8777
4.18112
4.04059
4.02171
4.34201
4.35855
4.37632
4.00211
3.94786
4.44429
4.51517
3.90862
4.17839
4.47894
4.18449
3.9283
4.1814
4.30643
4.32392
4.34201
4.44429
4.94234
5.1046
4.51517
4.67354
5.01988
4.78009
4.47894
4.72509
4.80238
4.86555
4.93371
4.59672
4.64126
4.38572
4.80239
4.94234
4.44429
4.58098
4.86955
4.67354
4.41432
4.62581
4.74321
4.80238
3.97569
4.38572
4.44429
3.94786
4.16884
4.41432
4.17839
3.96191
4.17354
4.94234
5.39426
5.62036
5.1046
5.15004
5.49998
5.33634
5.01988
5.2382
5.04216
5.19297
5.12431
4.98027
5.08226
5.26701
5.44546
5.36288
5.31357
5.55815
5.47077
5.28592
5.41519
5.21488
5.06128
5.16847
5.39426
5.76057
6.03238
5.62036
5.56397
5.88518
5.80749
5.49998
5.67681
5.47611
5.6184
5.58492
5.44546
5.5287
5.65852
5.82039
5.77655
5.71532
5.95559
5.91453
5.73967
5.84274
5.70983
5.55815
5.64515
5.18523
5.49305
5.76057
5.39426
5.33054
5.61665
5.56397
5.28364
5.43948
5.52513
5.68577
5.65852
5.49958
5.58937
4.80239
5.18523
5.39426
4.94234
4.98182
5.28364
5.15004
4.86955
5.06183
5.16864
5.33728
5.26701
5.10484
5.21647
4.6528
4.96099
5.18523
4.80239
4.80001
5.06364
4.98182
4.72261
4.88409
4.96099
5.20944
5.49305
5.18523
5.08019
5.33709
5.33054
5.06364
5.19388
5.26375
5.41098
5.40946
5.25892
5.33294
4.72793
4.94011
5.20944
4.96099
4.83083
5.05929
5.08019
4.83225
4.94183
4.99952
5.12978
5.14348
5.007
5.06722
4.88611
5.01941
4.89306
4.94898
4.48046
4.72793
4.96099
4.6528
4.60045
4.83225
4.80001
4.55884
4.69052
3.98384
4.3166
4.38572
3.97569
4.14302
4.34945
4.16884
3.97991
4.15539
4.3166
4.6528
4.80239
4.38572
4.47703
4.72261
4.58098
4.34945
4.52601
4.21556
4.48046
4.6528
4.3166
4.34408
4.55884
4.47703
4.26232
4.4051
3.95259
4.21556
4.3166
3.98384
4.08042
4.26232
4.14302
3.96729
4.10964
2.7011
2.89425
2.68122
2.492
2.79488
2.7861
2.58387
2.59496
2.68776
2.89425
3.15493
2.95839
2.68122
3.01984
3.05526
2.8146
2.7861
2.9157
3.0671
3.30555
3.15493
2.89425
3.18231
3.22994
3.01984
2.98011
3.10065
2.88079
3.0671
2.89425
2.7011
2.97142
2.98011
2.79488
2.79019
2.88248
3.15493
3.5061
3.36727
2.95839
3.32235