# vtk DataFile Version 2.0

ASCII

DATASET UNSTRUCTURED_GRID
POINTS 14089 float
0 0.9375 -0.673782
0.0625 0.9375 -0.819629
0.0625 1 -0.805997
0 1 -0.747565
0.03125 0.9375 -0.746131
0.0625 0.96875 -0.812755
0.03125 1 -0.776781
0 0.96875 -0.710696
0.03125 0.96875 -0.761526
0.015625 0.9375 -0.709815
0.015625 0.96875 -0.736061
0.0078125 0.9375 -0.691763
0.015625 0.953125 -0.722955
0.0078125 0.96875 -0.723366
0 0.953125 -0.692245
0.0078125 0.953125 -0.707577
0.0234375 0.9375 -0.727937
0.03125 0.953125 -0.753846
0.0234375 0.96875 -0.748781
0.0234375 0.953125 -0.738378
0.046875 0.9375 -0.782735
0.046875 0.96875 -0.78709
0.0390625 0.9375 -0.764397
0.046875 0.953125 -0.78492
0.0390625 0.96875 -0.774295
0.0390625 0.953125 -0.76936
0.0546875 0.9375 -0.801145
0.0625 0.953125 -0.816177
0.0546875 0.96875 -0.79991
0.0546875 0.953125 -0.800525
0.0625 0.984375 -0.809362
0.046875 1 -0.791389
0.03125 0.984375 -0.76917
0.046875 0.984375 -0.789246
0.046875 0.976562 -0.78817
0.0390625 0.984375 -0.779203
0.03125 0.976562 -0.765352
0.0390625 0.976562 -0.776753
0.0625 0.976562 -0.811055
0.0546875 0.984375 -0.799299
0.0546875 0.976562 -0.799604
0.0625 0.992188 -0.807676
0.0546875 1 -0.798693
0.046875 0.992188 -0.790319
0.0546875 0.992188 -0.798995
0.0390625 1 -0.784085
0.03125 0.992188 -0.77298
0.0390625 0.992188 -0.781647
0.015625 1 -0.762173
0 0.984375 -0.729136
0.015625 0.984375 -0.749134
0.015625 0.976562 -0.742602
0.0078125 0.984375 -0.73913
0 0.976562 -0.719917
0.0078125 0.976562 -0.731251
0.0234375 0.984375 -0.759147
0.0234375 0.976562 -0.753969
0.0234375 1 -0.769477
0.015625 0.992188 -0.755657
0.0234375 0.992188 -0.764316
0.0078125 1 -0.754869
0 0.992188 -0.738352
0.0078125 0.992188 -0.747002
0.0625 0.9375 -0.819629
0.125 0.9375 -0.973078
0.125 1 -0.944866
0.0625 1 -0.805997
0.09375 0.9375 -0.89498
0.125 0.96875 -0.958836
0.09375 1 -0.874266
0.0625 0.96875 -0.812755
0.09375 0.96875 -0.88453
0.0625 0.875 -0.880885
0.125 0.875 -1.04929
0.125 0.9375 -0.973078
0.0625 0.9375 -0.819629
0.09375 0.875 -0.963515
0.125 0.90625 -1.01049
0.09375 0.9375 -0.89498
0.0625 0.90625 -0.849725
0.09375 0.90625 -0.92864
0 0.875 -0.700365
0.0625 0.875 -0.880885
0.0625 0.9375 -0.819629
0 0.9375 -0.673782
0.03125 0.875 -0.789851
0.0625 0.90625 -0.849725
0.03125 0.9375 -0.746131
0 0.90625 -0.686852
0.03125 0.90625 -0.767619
0.015625 0.875 -0.744917
0.03125 0.890625 -0.778639
0.015625 0.90625 -0.72707
0 0.890625 -0.693552
0.015625 0.890625 -0.735918
0.046875 0.875 -0.835172
0.0625 0.890625 -0.865168
0.046875 0.90625 -0.808502
0.046875 0.890625 -0.821721
0.0625 0.921875 -0.834547
0.046875 0.9375 -0.782735
0.03125 0.921875 -0.756784
0.046875 0.921875 -0.795509
0.015625 0.9375 -0.709815
0 0.921875 -0.680263
0.015625 0.921875 -0.71837
0.125 0.9375 -0.973078
0.1875 0.9375 -1.12117
0.1875 1 -1.07875
0.125 1 -0.944866
0.15625 0.9375 -1.04607
0.1875 0.96875 -1.09976
0.15625 1 -1.01083
0.125 0.96875 -0.958836
0.15625 0.96875 -1.02828
0.1875 0.9375 -1.12117
0.25 0.9375 -1.25907
0.25 1 -1.20198
0.1875 1 -1.07875
0.21875 0.9375 -1.18919
0.25 0.96875 -1.23027
0.21875 1 -1.1395
0.1875 0.96875 -1.09976
0.21875 0.96875 -1.16412
0.1875 0.875 -1.21366
0.25 0.875 -1.37127
0.25 0.9375 -1.25907
0.1875 0.9375 -1.12117
0.21875 0.875 -1.29134
0.25 0.90625 -1.31406
0.21875 0.9375 -1.18919
0.1875 0.90625 -1.16653
0.21875 0.90625 -1.23927
0.125 0.875 -1.04929
0.1875 0.875 -1.21366
0.1875 0.9375 -1.12117
0.125 0.9375 -0.973078
0.15625 0.875 -1.13022
0.1875 0.90625 -1.16653
0.15625 0.9375 -1.04607
0.125 0.90625 -1.01049
0.15625 0.90625 -1.08736
0.125 0.8125 -1.07378
0.1875 0.8125 -1.25156
0.1875 0.875 -1.21366
0.125 0.875 -1.04929
0.15625 0.8125 -1.16119
0.1875 0.84375 -1.23231
0.15625 0.875 -1.13022
0.125 0.84375 -1.06135
0.15625 0.84375 -1.14547
0.1875 0.8125 -1.25156
0.25 0.8125 -1.42382
0.25 0.875 -1.37127
0.1875 0.875 -1.21366
0.21875 0.8125 -1.33639
0.25 0.84375 -1.3971
0.21875 0.875 -1.29134
0.1875 0.84375 -1.23231
0.21875 0.84375 -1.31349
0.1875 0.75 -1.2641
0.25 0.75 -1.44325
0.25 0.8125 -1.42382
0.1875 0.8125 -1.25156
0.21875 0.75 -1.35227
0.25 0.78125 -1.43338
0.21875 0.8125 -1.33639
0.1875 0.78125 -1.25774
0.21875 0.78125 -1.34421
0.125 0.75 -1.07844
0.1875 0.75 -1.2641
0.1875 0.8125 -1.25156
0.125 0.8125 -1.07378
0.15625 0.75 -1.16963
0.1875 0.78125 -1.25774
0.15625 0.8125 -1.16119
0.125 0.78125 -1.07607
0.15625 0.78125 -1.16535
0 0.8125 -0.692494
0.0625 0.8125 -0.889932
0.0625 0.875 -0.880885
0 0.875 -0.700365
0.03125 0.8125 -0.790359
0.0625 0.84375 -0.885348
0.03125 0.875 -0.789851
0 0.84375 -0.696482
0.03125 0.84375 -0.790101
0.0625 0.8125 -0.889932
0.125 0.8125 -1.07378
0.125 0.875 -1.04929
0.0625 0.875 -0.880885
0.09375 0.8125 -0.980028
0.125 0.84375 -1.06135
0.09375 0.875 -0.963515
0.0625 0.84375 -0.885348
0.09375 0.84375 -0.971655
0.0625 0.75 -0.884631
0.125 0.75 -1.07844
0.125 0.8125 -1.07378
0.0625 0.8125 -0.889932
0.09375 0.75 -0.979504
0.125 0.78125 -1.07607
0.09375 0.8125 -0.980028
0.0625 0.78125 -0.887316
0.09375 0.78125 -0.97977
0 0.75 -0.679533
0.0625 0.75 -0.884631
0.0625 0.8125 -0.889932
0 0.8125 -0.692494
0.03125 0.75 -0.781184
0.0625 0.78125 -0.887316
0.03125 0.8125 -0.790359
0 0.78125 -0.686098
0.03125 0.78125 -0.785832
0.25 0.9375 -1.25907
0.3125 0.9375 -1.39188
0.3125 1 -1.32386
0.25 1 -1.20198
0.28125 0.9375 -1.32454
0.3125 0.96875 -1.35756
0.28125 1 -1.26206
0.25 0.96875 -1.23027
0.28125 0.96875 -1.29302
0.3125 0.9375 -1.39188
0.375 0.9375 -1.52509
0.375 1 -1.44991
0.3125 1 -1.32386
0.34375 0.9375 -1.4575
0.375 0.96875 -1.48715
0.34375 1 -1.38597
0.3125 0.96875 -1.35756
0.34375 0.96875 -1.42141
0.3125 0.875 -1.52381
0.375 0.875 -1.67438
0.375 0.9375 -1.52509
0.3125 0.9375 -1.39188
0.34375 0.875 -1.5979
0.375 0.90625 -1.59811
0.34375 0.9375 -1.4575
0.3125 0.90625 -1.45648
0.34375 0.90625 -1.52621
0.25 0.875 -1.37127
0.3125 0.875 -1.52381
0.3125 0.9375 -1.39188
0.25 0.9375 -1.25907
0.28125 0.875 -1.4464
0.3125 0.90625 -1.45648
0.28125 0.9375 -1.32454
0.25 0.90625 -1.31406
0.28125 0.90625 -1.38424
0.375 0.9375 -1.52509
0.4375 0.9375 -1.66378
0.4375 1 -1.58661
0.375 1 -1.44991
0.40625 0.9375 -1.59331
0.4375 0.96875 -1.62481
0.40625 1 -1.51719
0.375 0.96875 -1.48715
0.40625 0.96875 -1.55488
0.4375 0.9375 -1.66378
0.5 0.9375 -1.82017
0.5 1 -1.74796
0.4375 1 -1.58661
0.46875 0.9375 -1.7405
0.5 0.96875 -1.78368
0.46875 1 -1.66583
0.4375 0.96875 -1.62481
0.46875 0.96875 -1.70278
0.4375 0.875 -1.82566
0.5 0.875 -1.98505
0.5 0.9375 -1.82017
0.4375 0.9375 -1.66378
0.46875 0.875 -1.90372
0.5 0.90625 -1.90055
0.46875 0.9375 -1.7405
0.4375 0.90625 -1.74284
0.46875 0.90625 -1.82015
0.375 0.875 -1.67438
0.4375 0.875 -1.82566
0.4375 0.9375 -1.66378
0.375 0.9375 -1.52509
0.40625 0.875 -1.74868
0.4375 0.90625 -1.74284
0.40625 0.9375 -1.59331
0.375 0.90625 -1.59811
0.40625 0.90625 -1.66925
0.375 0.8125 -1.76082
0.4375 0.8125 -1.92796
0.4375 0.875 -1.82566
0.375 0.875 -1.67438
0.40625 0.8125 -1.84279
0.4375 0.84375 -1.87577
0.40625 0.875 -1.74868
0.375 0.84375 -1.71679
0.40625 0.84375 -1.79482
0.4375 0.8125 -1.92796
0.5 0.8125 -2.0961
0.5 0.875 -1.98505
0.4375 0.875 -1.82566
0.46875 0.8125 -2.01014
0.5 0.84375 -2.03934
0.46875 0.875 -1.90372
0.4375 0.84375 -1.87577
0.46875 0.84375 -1.9558
0.4375 0.75 -1.97519
0.5 0.75 -2.15048
0.5 0.8125 -2.0961
0.4375 0.8125 -1.92796
0.46875 0.75 -2.06077
0.5 0.78125 -2.12278
0.46875 0.8125 -2.01014
0.4375 0.78125 -1.95116
0.46875 0.78125 -2.035
0.375 0.75 -1.79765
0.4375 0.75 -1.97519
0.4375 0.8125 -1.92796
0.375 0.8125 -1.76082
0.40625 0.75 -1.88465
0.4375 0.78125 -1.95116
0.40625 0.8125 -1.84279
0.375 0.78125 -1.77893
0.40625 0.78125 -1.86336
0.25 0.8125 -1.42382
0.3125 0.8125 -1.59291
0.3125 0.875 -1.52381
0.25 0.875 -1.37127
0.28125 0.8125 -1.50703
0.3125 0.84375 -1.55775
0.28125 0.875 -1.4464
0.25 0.84375 -1.3971
0.28125 0.84375 -1.47619
0.3125 0.8125 -1.59291
0.375 0.8125 -1.76082
0.375 0.875 -1.67438
0.3125 0.875 -1.52381
0.34375 0.8125 -1.67544
0.375 0.84375 -1.71679
0.34375 0.875 -1.5979
0.3125 0.84375 -1.55775
0.34375 0.84375 -1.63596
0.3125 0.75 -1.62018
0.375 0.75 -1.79765
0.375 0.8125 -1.76082
0.3125 0.8125 -1.59291
0.34375 0.75 -1.70736
0.375 0.78125 -1.77893
0.34375 0.8125 -1.67544
0.3125 0.78125 -1.60632
0.34375 0.78125 -1.69113
0.25 0.75 -1.44325
0.3125 0.75 -1.62018
0.3125 0.8125 -1.59291
0.25 0.8125 -1.42382
0.28125 0.75 -1.53029
0.3125 0.78125 -1.60632
0.28125 0.8125 -1.50703
0.25 0.78125 -1.43338
0.28125 0.78125 -1.51848
0.25 0.6875 -1.43879
0.3125 0.6875 -1.61688
0.3125 0.75 -1.62018
0.25 0.75 -1.44325
0.28125 0.6875 -1.5264
0.3125 0.71875 -1.61856
0.28125 0.75 -1.53029
0.25 0.71875 -1.44105
0.28125 0.71875 -1.52837
0.3125 0.6875 -1.61688
0.375 0.6875 -1.79658
0.375 0.75 -1.79765
0.3125 0.75 -1.62018
0.34375 0.6875 -1.70516
0.375 0.71875 -1.79712
0.34375 0.75 -1.70736
0.3125 0.71875 -1.61856
0.34375 0.71875 -1.70627
0.3125 0.625 -1.5723
0.375 0.625 -1.74488
0.375 0.6875 -1.79658
0.3125 0.6875 -1.61688
0.34375 0.625 -1.65717
0.375 0.65625 -1.77103
0.34375 0.6875 -1.70516
0.3125 0.65625 -1.59486
0.34375 0.65625 -1.68145
0.25 0.625 -1.40108
0.3125 0.625 -1.5723
0.3125 0.6875 -1.61688
0.25 0.6875 -1.43879
0.28125 0.625 -1.48536
0.3125 0.65625 -1.59486
0.28125 0.6875 -1.5264
0.25 0.65625 -1.42018
0.28125 0.65625 -1.50614
0.375 0.6875 -1.79658
0.4375 0.6875 -1.97804
0.4375 0.75 -1.97519
0.375 0.75 -1.79765
0.40625 0.6875 -1.88551
0.4375 0.71875 -1.97659
0.40625 0.75 -1.88465
0.375 0.71875 -1.79712
0.40625 0.71875 -1.88507
0.4375 0.6875 -1.97804
0.5 0.6875 -2.15733
0.5 0.75 -2.15048
0.4375 0.75 -1.97519
0.46875 0.6875 -2.06557
0.5 0.71875 -2.15386
0.46875 0.75 -2.06077
0.4375 0.71875 -1.97659
0.46875 0.71875 -2.06313
0.4375 0.625 -1.92026
0.5 0.625 -2.09469
0.5 0.6875 -2.15733
0.4375 0.6875 -1.97804
0.46875 0.625 -2.00554
0.5 0.65625 -2.12628
0.46875 0.6875 -2.06557
0.4375 0.65625 -1.94944
0.46875 0.65625 -2.03583
0.375 0.625 -1.74488
0.4375 0.625 -1.92026
0.4375 0.6875 -1.97804
0.375 0.6875 -1.79658
0.40625 0.625 -1.83094
0.4375 0.65625 -1.94944
0.40625 0.6875 -1.88551
0.375 0.65625 -1.77103
[...]
POINT_DATA 14089
SCALARS "velocity_y" float 1
LOOKUP_TABLE default
-0.673782
-0.819629
-0.805997
-0.747565
-0.746131
-0.812755
-0.776781
-0.710696
-0.761526
-0.709815
-0.736061
-0.691763
-0.722955
-0.723366
-0.692245
-0.707577
-0.727937
-0.753846
-0.748781
-0.738378
-0.782735
-0.78709
-0.764397
-0.78492
-0.774295
-0.76936
-0.801145
-0.816177
-0.79991
-0.800525
-0.809362
-0.791389
-0.76917
-0.789246
-0.78817
-0.779203
-0.765352
-0.776753
-0.811055
-0.799299
-0.799604
-0.807676
-0.798693
-0.790319
-0.798995
-0.784085
-0.77298
-0.781647
-0.762173
-0.729136
-0.749134
-0.742602
-0.73913
-0.719917
-0.731251
-0.759147
-0.753969
-0.769477
-0.755657
-0.764316
-0.754869
-0.738352
-0.747002
-0.819629
-0.973078
-0.944866
-0.805997
-0.89498
-0.958836
-0.874266
-0.812755
-0.88453
-0.880885
-1.04929
-0.973078
-0.819629
-0.963515
-1.01049
-0.89498
-0.849725
-0.92864
-0.700365
-0.880885
-0.819629
-0.673782
-0.789851
-0.849725
-0.746131
-0.686852
-0.767619
-0.744917
-0.778639
-0.72707
-0.693552
-0.735918
-0.835172
-0.865168
-0.808502
-0.821721
-0.834547
-0.782735
-0.756784
-0.795509
-0.709815
-0.680263
-0.71837
-0.973078
-1.12117
-1.07875
-0.944866
-1.04607
-1.09976
-1.01083
-0.958836
-1.02828
-1.12117
-1.25907
-1.20198
-1.07875
-1.18919
-1.23027
-1.1395
-1.09976
-1.16412
-1.21366
-1.37127
-1.25907
-1.12117
-1.29134
-1.31406
-1.18919
-1.16653
-1.23927
-1.04929
-1.21366
-1.12117
-0.973078
-1.13022
-1.16653
-1.04607
-1.01049
-1.08736
-1.07378
-1.25156
-1.21366
-1.04929
-1.16119
-1.23231
-1.13022
-1.06135
-1.14547
-1.25156
-1.42382
-1.37127
-1.21366
-1.33639
-1.3971
-1.29134
-1.23231
-1.31349
-1.2641
-1.44325
-1.42382
-1.25156
-1.35227
-1.43338
-1.33639
-1.25774
-1.34421
-1.07844
-1.2641
-1.25156
-1.07378
-1.16963
-1.25774
-1.16119
-1.07607
-1.16535
-0.692494
-0.889932
-0.880885
-0.700365
-0.790359
-0.885348
-0.789851
-0.696482
-0.790101
-0.889932
-1.07378
-1.04929
-0.880885
-0.980028
-1.06135
-0.963515
-0.885348
-0.971655
-0.884631
-1.07844
-1.07378
-0.889932
-0.979504
-1.07607
-0.980028
-0.887316
-0.97977
-0.679533
-0.884631
-0.889932
-0.692494
-0.781184
-0.887316
-0.790359
-0.686098
-0.785832
-1.25907
-1.39188
-1.32386
-1.20198
-1.32454
-1.35756
-1.26206
-1.23027
-1.29302
-1.39188
-1.52509
-1.44991
-1.32386
-1.4575
-1.48715
-1.38597
-1.35756
-1.42141
-1.52381
-1.67438
-1.52509
-1.39188
-1.5979
-1.59811
-1.4575
-1.45648
-1.52621
-1.37127
-1.52381
-1.39188
-1.25907
-1.4464
-1.45648
-1.32454
-1.31406
-1.38424
-1.52509
-1.66378
-1.58661
-1.44991
-1.59331
-1.62481
-1.51719
-1.48715
-1.55488
-1.66378
-1.82017
-1.74796
-1.58661
-1.7405
-1.78368
-1.66583
-1.62481
-1.70278
-1.82566
-1.98505
-1.82017
-1.66378
-1.90372
-1.90055
-1.7405
-1.74284
-1.82015
-1.67438
-1.82566
-1.66378
-1.52509
-1.74868
-1.74284
-1.59331
-1.59811
-1.66925
-1.76082
-1.92796
-1.82566
-1.67438
-1.84279
-1.87577
-1.74868
-1.71679
-1.79482
-1.92796
-2.0961
-1.98505
-1.82566
-2.01014
-2.03934
-1.90372
-1.87577
-1.9558
-1.97519
-2.15048
-2.0961
-1.92796
-2.06077
-2.12278
-2.01014
-1.95116
-2.035
-1.79765
-1.97519
-1.92796
-1.76082
-1.88465
-1.95116
-1.84279
-1.77893
-1.86336
-1.42382
-1.59291
-1.52381
-1.37127
-1.50703
-1.55775
-1.4464
-1.3971
-1.47619
-1.59291
-1.76082
-1.67438
-1.52381
-1.67544
-1.71679
-1.5979
-1.55775
-1.63596
-1.62018
-1.79765
-1.76082
-1.59291
-1.70736
-1.77893
-1.67544
-1.60632
-1.69113
-1.44325
-1.62018
-1.59291
-1.42382
-1.53029
-1.60632
-1.50703
-1.43338
-1.51848
-1.43879
-1.61688
-1.62018
-1.44325
-1.5264
-1.61856
-1.53029
-1.44105
-1.52837
-1.61688
-1.79658
-1.79765
-1.62018
-1.70516
-1.79712
-1.70736
-1.61856
-1.70627
-1.5723
-1.74488
-1.79658
-1.61688
-1.65717
-1.77103
-1.70516
-1.59486
-1.68145
-1.40108
-1.5723
-1.61688
-1.43879
-1.48536
-1.59486
-1.5264
-1.42018
-1.50614
-1.79658
-1.97804
-1.97519
-1.79765
-1.88551
-1.97659
-1.88465
-1.79712
-1.88507
-1.97804
-2.15733
-2.15048
-1.97519
-2.06557
-2.15386
-2.06077
-1.97659
-2.06313
-1.92026
-2.09469
-2.15733
-1.97804
-2.00554
-2.12628
-2.06557
-1.94944
-2.03583
-1.74488
-1.92026
-1.97804
-1.79658
-1.83094
-1.94944
-1.88551
-1.77103
-1.85851
-1.623
-1.77557
-1.92026
-1.74488
-1.69811
-1.84802
-1.83094
-1.68423
-1.76474
-1.77557
-1.92585
-2.09469
-1.92026
-1.84937
-2.01004
-2.00554
-1.84802
-1.92741
-1.54003
-1.64597
-1.92585
-1.77557
-1.59241
-1.78396
-1.84937
-1.65694
-1.71953
-1.75151
-1.85441
-1.88727
-1.7841
-1.81897
-1.42701
-1.54003
-1.77557
-1.623
-1.48293
-1.65694
-1.69811
-1.52477
-1.59
-1.31912
-1.47157
-1.5723
-1.40108
-1.39427
-1.5223
-1.48536
-1.36046
-1.44018
-1.47157
-1.623
-1.74488
-1.5723
-1.54621
-1.68423
-1.65717
-1.5223
-1.60202
-1.31062
-1.42701
-1.623
-1.47157
-1.36819
-1.52477
-1.54621
-1.39118
-1.45714
-1.18894
-1.31062
-1.47157
-1.31912
-1.24907
-1.39118
-1.39427
-1.25425
-1.32183
-0.664045
-0.869966
-0.884631
-0.679533
-0.869966
-1.06858
-1.07844
-0.884631
-0.967088
-1.07357
-0.979504
-0.877392
-0.973379
-0.844397
-1.03968
-1.06858
-0.869966
-0.93983
-1.0543
-0.967088
-0.85733
-0.953621
-0.645904
-0.844397
-0.869966
-0.664045
-1.06858
-1.25792
-1.2641
-1.07844
-1.16148
-1.26106
-1.16963
-1.07357
-1.16561
-1.25792
-1.43879
-1.44325
-1.2641
-1.3469
-1.44105
-1.35227
-1.26106
-1.34963
-1.22553
-1.40108
-1.43879
-1.25792
-1.31189
-1.42018
-1.3469
-1.24193
-1.32962
-1.03968
-1.22553
-1.25792
-1.06858
-1.13081
-1.24193
-1.16148
-1.0543
-1.14634
-0.987703
-1.15958
-1.22553
-1.03968
-1.07199
-1.19286
-1.13081
-1.01394
-1.10167
-1.15958
-1.31912
-1.40108
-1.22553
-1.23812
-1.36046
-1.31189
-1.19286
-1.27534
-1.05666
-1.18894
-1.31912
-1.15958
-1.12188
-1.25425
-1.23812
-1.10837
-1.18023
-0.909968
-1.05666
-1.15958
-0.987703
-0.981979
-1.10837
-1.07199
-0.94906
-1.02722
-0.624544
-0.806053
-0.844397
-0.645904
-0.71448
-0.82541
-0.744233
-0.635329
-0.729501
-0.806053
-0.987703
-1.03968
-0.844397
-0.894838
-1.01394
-0.93983
-0.82541
-0.917548
-0.753135
-0.909968
-0.987703
-0.806053
-0.829882
-0.94906
-0.894838
-0.779778
-0.862567
-0.599439
-0.753135
-0.806053
-0.624544
-0.675647
-0.779778
-0.71448
-0.612087
-0.695205
-1.82017
-2.03022
-1.97279
-1.74796
-1.92277
-2.00118
-1.85785
-1.78368
-1.88995
-2.03022
-2.3676
-2.35549
-1.97279
-2.1926
-2.36147
-2.15707
-2.00118
-2.17463
-2.10992
-2.08632
-2.27843
-2.26628
-2.25441
-2.06326
-2.17531
-2.42383
-2.3676
-2.03022
-2.29485
-2.39493
-2.1926
-2.10079
-2.24232
-2.23397
-2.26822
-2.17025
-2.13753
-2.20166
-2.35809
-2.40918
-2.31716
-2.33734
-2.27843
-2.27938
-2.29753
-2.23511
-2.21712
-2.25694
-2.35567
-2.38108
-2.32258
-2.3389
-2.10992
-2.06503
-2.13967
-1.98505
-2.17531
-2.03022
-1.82017
-2.07777
-2.10079
-1.92277
-1.90055
-1.99825
-2.03083
-2.03749
-1.94882
-1.94227
-1.98929
-2.12591
-2.13753
-2.04889
-2.08688
-2.06503
-1.97586
-1.96002
-2.0119
-1.87088
-1.85986
-1.90936
-2.3676
-2.75845
-3.00339
-2.35549
-2.54822
-2.88697
-2.66709
-2.36147
-2.60941
-2.45461
-2.48204
-2.41032
-2.42094
-2.38877
-2.391
-2.50054
-2.57927
-2.54484
-2.46847
-2.52297
-2.64919
-2.82434
-2.74416
-2.69763
-2.59773
-2.63746
-2.70272
-2.79182
-2.75988
-2.67365
-2.73163
-2.85605
-2.81452
-2.72113
-2.78751
-2.67582
-2.94659
-2.83197
-2.63867
-2.78891
-2.7129
-2.91714
-2.86679
-2.76676
-2.84094
-2.97533
-2.91684
-2.81065
-2.89208
-2.74874
-2.50837
-2.43122
-2.58698
-2.49534
-2.56617
-2.75845
-2.48354
-2.03031
-3.00339
-2.65347
-2.28722
-2.71194
-2.88697
-2.68232
-2.7115
-2.79867
-2.73615
-2.75558
-2.84565
-2.82434
-2.79193
-2.77429
-2.77725
-2.82294
-2.81904
-2.7988
-2.80859
-2.86696
-2.85605
-2.83809
-2.68411
-2.74477
-2.69818
-2.71453
-2.77268
-2.7357
-2.66923
-2.71474
-2.66147
-2.6678
-2.69885
-2.69195
-2.68008
-2.57989
-2.52206
-2.61899
-2.6091
-2.63676
-2.64722
-2.64524
-2.64193
-2.66513
-2.65509
-2.62801
-2.61413
-2.62856
-2.62828
-2.60007
-2.55184
-2.56754
-2.58419
-2.53518
-2.39153
-2.41687
-2.47868
-2.55831
-2.50755
-2.51679
-2.56607
-2.53793
-2.51032
-2.43894
-2.4371
-2.47466
-2.34106
-2.35561
-2.44849
-2.39747
-2.47207
-2.53718
-2.49486
-2.45658
-2.59848
-2.6582
-2.68576
-2.62915
-2.53172
-2.58878
-2.55007
-2.56606
-2.60389
-2.57766
-2.54532
-2.49037
-2.49529
-2.52101
-2.16797
-2.274
-2.34896
-2.42376
-2.49767
-2.44839
-2.458
-2.50646
-2.47818
-2.44517
-2.38374
-2.38747
-2.41695
-2.22965
-2.26439
-2.31132
-2.32238
-2.25893
-2.27175
-2.33378
-2.29746
-2.19935
-2.21781
-2.2882
-2.24521
-2.10169
-2.16156
-2.31243
-2.21456
-2.30801
-2.23985
-2.26517
-2.33092
-2.28689
-2.13543
-2.16021
-2.18949
-2.06668
-2.09857
-2.18847
-2.12992
-2.21987
-2.3714
-2.39811
-2.41537
-2.47375
-2.43707
-2.32438
-2.35665
-2.882
-2.8408
-2.94737
-2.94659
-2.89743
-2.87178
-2.92285
-2.91714
-2.8952
-2.87015
-2.916
-2.92263
-2.97642
-2.97533
-2.94992
-2.80472
-2.77484
-2.84504
-2.80912
-2.76054
-2.73004
-2.78314
-2.73683
-2.65028
-2.52429
-2.48354
-2.75845
-2.59611
-2.50552
-2.65347
-2.7055
-2.62423
-2.62497
-2.66834
-2.63803
-2.64668
-2.68768
-2.67818
-2.663
-2.61103
-2.64727
-2.56291
-2.57101
-2.58011
-2.59893
-2.54435
-2.54005
-2.57989
-2.61899
-2.53518
-2.52327
-2.49498
-2.51032
-2.53769
-2.51703
-2.7115
-2.73615
-2.68411
-2.42383
-2.65028
-2.75845
-2.3676
-2.52925
-2.7055
-2.54822
-2.39493
-2.53897
-2.47479
-2.46443
-2.44889
-2.46954
-2.42909
-2.40918
-2.43885
-2.50156
-2.50104
-2.58761
-2.6191
-2.55792
-2.5783
-2.61838
-2.67818
-2.66147
-2.60354
-2.64016
-2.64919
-2.59773
-2.73224
-2.70272
-2.63432
-2.68232
-2.45461
-2.41032
-2.50054
-2.46246
-2.60794
-2.65028
-2.42383
-2.53092
-2.62942
-2.52925
-2.44267
-2.53007
-2.49572
-2.48502
-2.56827
-2.57811
-2.58761
-2.47479
-2.60794
-2.55467
-2.52429
-2.65028
-2.58381
-2.53996
-2.59611
-2.62942
-2.58993
-2.59642
-2.61076
-2.56996
-2.5665
-2.56291
-2.62497
-2.59632
-2.58929
-2.55467
-2.60794
-2.59305
-2.57217
-2.58381
-2.6022
-2.58843
-2.48202
-2.59632
-2.60794
-2.46246
-2.53623
-2.6022
-2.53092
-2.47205
-2.53354
-2.56548
-2.56689
-2.56827
-2.0961
-2.27327
-2.17531
-1.98505
-2.18222
-2.22308
-2.07777
-2.03934
-2.12878
-2.27327
-2.46246
-2.42383
-2.17531
-2.36425
-2.44267
-2.29485
-2.22308
-2.3287
-2.31791
-2.34625
-2.2749
-2.24786
-2.29614
-2.4124
-2.38458
-2.35809
-2.31157
-2.23397
-2.19891
-2.25419
-2.3218
-2.48202
-2.46246
-2.27327
-2.3989
-2.47205
-2.36425
-2.29706
-2.38124
-2.15048
-2.3218
-2.27327
-2.0961
-2.23366
-2.29706
-2.18222
-2.12278
-2.20745
-2.48354
-1.46754
0.61624
-2.03031
-2.13792
-0.768414
-1.35784
-2.28722
-1.82329
-2.33454
-1.99447
-2.09303
-2.39153
-2.22266
-2.41385
-2.28059
-2.31297
-2.43894
-2.36506
-2.24351
-2.06922
-2.11778
-2.18307
-2.29065
-2.21386
-2.23364
-2.30804
-2.26266
-2.19274
-2.10428
-2.12843
-2.16122
-2.03265
-2.05872
-2.15106
-2.09429
-2.17226
-2.25215
-2.20352
-1.91282
-1.97011
-2.16032
-2.04703
-2.08313
-2.10597
-2.19207
-2.13976
-1.95457
-1.98289
-2.02162
-1.86911
-1.90011
-2.00939
-1.94243
-2.03418
-2.12733
-2.07081
-2.19744
-2.34106
-2.25723
-2.26944
-2.21059
-2.28558
-2.24054
-2.14728
-2.22786
-2.17952
-1.86649
-1.16735
-1.42324
-1.66903
-2.01399
-1.77286
-1.84742
-1.93458
-2.07853
-1.97519
-2.00484
-2.04248
-1.94359
-1.82086
-1.85759
-1.90162
-1.72233
-1.76273
-1.89204
-1.81135
-1.92432
-1.96549
-1.68798
-1.32735
-1.4481
-1.575
-1.78169
-1.63308
-1.67917
-1.73179
-1.58387
-1.39968
-1.4585
-1.52307
-1.52737
-1.43414
-1.46319
-1.55392
-1.49577
-1.3641
-1.39493
-1.49128
-1.4296
-1.25008
-1.31663
-1.51345
-1.38983
-1.51843
-1.4247
-1.45347
-1.54468
-1.48644
-1.28936
-1.32216
-1.35913
-1.20944
-1.24444
-1.35382
-1.28395
-1.38439
-1.48127
-1.41947
-1.56478
-1.62358
-0.983043
-1.1408
-1.55322
-1.30454
-1.3786
-1.43634
-1.61275
-1.50248
-1.50813
-1.4139
-1.44239
-1.53409
-1.47576
-1.34217
-1.37248
-1.46991
-1.40798
-1.07857
-1.15476
-1.23845
-1.27819
-1.31075
-1.34817
-1.12376
-1.16123
-1.20355
-1.0317
-1.07193
-1.19733
-1.11738
-1.23212
-1.27209
-0.879968
-0.968336
-1.22545
-1.06495
-1.11066
-1.14795
-1.26565
-1.19076
-0.932504
-0.975857
-1.02479
-0.825315
-0.872202
-1.01754
-0.925032
-1.05763
-1.18385
-1.1036
-1.29109
-1.49016
-1.36602
-1.49649
-1.40173
-1.42996
-1.52215
-1.46372
-1.29799
-1.33583
-1.21844
-1.32916
-1.25888
-1.35922
-1.4572
-1.39514
-1.64482
-1.75131
-1.80057
-1.83598
-1.8812
-1.65758
-1.71155
-1.54034
-1.69947
-1.60059
-1.73861
-1.78851
-0.21239
-0.692665
-1.61547
-1.10889
-1.27631
-1.39308
-1.72465
-1.52614
-1.58713
-1.63077
-1.77519
-1.68611
-1.3521
-1.40881
-1.47652
-1.4835
-1.38822
-1.41619
-1.50889
-1.45035
-1.31481
-1.34464
-1.44317
-1.38097
-1.19542
-1.26022
-1.46157
-1.33685
-1.46921
-1.37339
-1.40111
-1.49433
-1.43567
-1.23654
-1.26843
-1.30714
-1.1529
-1.1871
-1.29915
-1.22843
-1.32874
-1.42784
-1.36548
-1.51067
-1.67148
-1.57238
-0.515317
-0.732982
-0.952303
-1.04998
-1.1255
-1.2111
-1.25176
-1.28387
-1.32215
-1.0962
-1.13332
-1.17661
-1.00205
-1.042
-1.16904
-1.08847
-1.20343
-1.24432
-0.647293
-0.751329
-0.864107
-0.917228
-0.960483
-1.00996
-0.709125
-0.760031
-0.817245
-0.582751
-0.638251
-0.808851
-0.700418
-0.855689
-0.909097
-0.370959
-0.495533
-0.84695
-0.628902
-0.691397
-0.742311
-0.900641
-0.800137
-0.444792
-0.505571
-0.573363
-0.293579
-0.36046
-0.563675
-0.434676
-0.619249
-0.791108
-0.682066
-0.934973
-1.03369
-1.08042
-1.11736
-1.16113
-0.943798
-0.993809
-0.837894
-0.985245
-0.891864
-1.02506
-1.07203
0.156687
-0.165707
-0.916379
-0.474602
-0.609299
-0.713413
-1.01611
-0.828527
-0.882771
-0.925831
-1.06333
-0.976362
-0.672431
-0.723348
-0.781766
-0.543417
-0.599057
-0.772118
-0.662497
-0.818853
-0.967164
-0.873366
-0.0374045
-0.18953
-0.349688
-0.424277
-0.485208
-0.553691
-0.127105
-0.201084
-0.282683
-0.288164
-0.170279
-0.206769
-0.322033
-0.247961
-0.0828277
-0.121268
-0.242379
-0.164551
0.0570628
-0.0252312
-0.271527
-0.115373
-0.277137
-0.158762
-0.195337
-0.31107
-0.236733
0.00920985
-0.0313454
-0.076881
0.106204
0.063353
-0.070877
0.0153834
-0.109419
-0.231025
-0.152912
-0.33865
-0.413601
0.373195
0.183074
-0.327351
-0.0128416
-0.103408
-0.177735
-0.402653
-0.260115
-0.265852
-0.147003
-0.183662
-0.299846
-0.225255
-0.0587014
-0.0973401
-0.219423
-0.141036
0.261903
0.169793
0.0696937
0.0216099
-0.0190629
-0.0648168
0.208567
0.163217
0.112613
0.316757
0.268683
0.11907
0.215221
0.0760837
0.0278881
0.491104
0.387304
0.0825218
0.275501
0.221917
0.176412
0.0342169
0.125574
0.431286
0.380233
0.323665
0.552728
0.498412
0.330608
0.438458
0.282358
0.132123
0.228654
-0.000244386
-0.248457
-0.0912174
-0.254317
-0.135012
-0.171749
-0.288369
-0.213532
-0.00656837
-0.0525318
0.0890069
-0.0463091
0.0405953
-0.0850404
-0.207581
-0.128932
-0.452572
-0.808877
-0.588528
-0.652268
-0.703184
-0.863655
-0.762169
-0.463721
-0.532859
-0.3158
-0.522024
-0.391441
-0.57772
-0.751925
-0.641752
-1.07188
-1.49393
-1.24284
-1.32031
-1.37608
-1.55637
-1.44534
-1.45361
-1.35726
-1.38474
-1.47848
-1.41969
-1.28219
-1.31157
-1.41122
-1.34871
-1.09101
-1.17845
-1.22001
-1.25169
-1.29083
-1.10011
-1.14435
-1.00685
-1.13547
-1.05431
-1.16949
-1.21126
-0.896562
-1.16021
-0.997279
-1.04497
-1.08159
-1.2022
-1.12629
-0.906621
-0.957656
-0.798606
-0.947842
-0.853642
-0.987402
-1.11679
-1.03533
-1.22422
-1.42786
-1.30251
-1.43676
-1.33986
-1.36711
-1.46137
-1.40245
-1.23369
-1.27324
-1.15063
-1.26398
-1.19284
-1.29315
-1.39337
-1.33069
-1.76044
-2.16797
-1.94106
-2.02018
-2.06382
-2.22965
-2.13314
-2.24396
-2.16588
-2.18322
-2.25893
-2.21413
-2.05734
-2.07897
-2.11378
-1.98146
-2.00506
-2.09914
-2.04276
-2.11794
-2.19935
-2.15118
-1.79423
-1.88618
-1.92908
-1.95617
-1.996
-1.80936
-1.8558
-1.70946
-1.84128
-1.76064
-1.87108
-1.91456
-1.58118
-1.85481
-1.69305
-1.74488
-1.77791
-1.89889
-1.82557
-1.59892
-1.65562
-1.47597
-1.63855
-1.53913
-1.67546
-1.80871
-1.72793
-1.90749
-2.10169
-1.98884
-2.02708
-2.04759
-2.13543
-2.08343
-1.92483
-1.96579
-1.83742
-1.94901
-1.88208
-1.97154
-2.06668
-2.01032
-1.46754
-0.277212
0.560171
0.61624
-1.02258
0.0694908
0.59072
-0.768414
-0.430164
-1.26999
-0.761094
-0.614147
-1.16735
-0.984848
-1.374
-1.13615
-1.08051
-1.32735
-1.23661
-1.42198
-1.30743
-1.2831
-1.39968
-1.35472
-1.32341
-1.20506
-1.18769
-1.25761
-1.06289
-1.03386
-1.16113
-1.11326
-1.12496
-1.25008
-1.20668
-1.15362
-0.899075
-0.878954
-1.02432
-1.21348
-1.09081
-1.08177
-1.14954
-1.0901
-0.96249
-0.96352
-1.02856
-0.832049
-0.821643
-0.953825
-0.894661
-0.93328
-1.00982
-0.605931
-0.526382
-0.812432
-0.71434
-0.799284
-0.764581
-0.901546
-0.851706
-0.685855
-0.661524
-0.744077
-0.520871
-0.479404
-0.623579
-0.573489
-0.57125
-0.716874
-0.67132
-0.694526
-0.983043
-0.901612
-0.994212
-0.943232
-1.07857
-1.03736
-0.858058
-0.948992
-0.655201
-0.801994
-0.760387
-0.732232
-0.879968
-0.841816
-0.703713
-0.117584
-0.206963
-0.480329
-0.873882
-0.597371
-0.629118
-0.757848
-0.950651
-0.817332
-0.830644
-0.892216
-0.791762
-0.651786
-0.680254
-0.737366
-0.540286
-0.55702
-0.695197
-0.620215
-0.697024
-0.765677
-0.507058
-0.200437
-0.311296
-0.41342
-0.609068
-0.461232
-0.50864
-0.559976
-0.396788
-0.31097
-0.453017
-0.354737
-0.363149
-0.409009
-0.338235
-0.239541
-0.256773
-0.298292
-0.159814
-0.21785
-0.363489
-0.26538
-0.18032
-0.213581
-0.28841
-0.235392
-0.138906
-0.168615
-0.241865
-0.191327
-0.398593
-0.454903
-0.0279013
-0.0765168
-0.350887
-0.199478
-0.256683
-0.277474
-0.417278
-0.339519
-0.0736478
-0.116454
-0.168254
0.0197702
-0.00562718
-0.139492
-0.0622998
-0.143525
-0.280883
-0.212228
-0.32421
-0.485488
-0.559323
-0.547336
-0.624365
-0.420108
-0.490412
-0.267108
-0.407252
-0.345791
-0.378494
-0.465532
0.291756
0.576163
0.00211504
0.135275
-0.0459834
0.0661182
-0.229396
-0.14182
-0.235905
-0.186572
-0.333227
-0.285704
-0.128789
-0.0950055
-0.183661
0.0418787
0.100014
-0.0413685
-0.000637193
-0.0212188
0.0488645
0.0829006
0.0114501
0.0299666
0.0335091
-0.117908
-0.0804252
-0.208217
-0.134421
-0.0993575
-0.174661
-0.154753
-0.024484
-0.0590238
0.175632
0.210233
0.0593398
-0.010324
0.00540645
-0.0710852
0.121396
0.11601
0.0537437
0.23236
0.250121
0.132755
0.18139
0.171984
0.0862992
0.419341
0.340901
0.354012
0.378806
0.234745
0.292121
0.250603
0.2629
0.184214
0.216759
0.322514
0.32247
0.285826
0.386278
0.398728
0.334838
0.36009
0.359541
0.286945
0.310472
0.487975
0.568359
0.454441
0.470723
0.424081
0.462466
0.3967
0.41018
0.453229
0.479222
0.438424
0.523611
0.518793
0.514225
0.272016
0.305377
0.131694
0.181406
0.122735
0.15612
0.0656401
0.0936693
0.207598
0.152895
0.322855
0.242246
0.264217
0.288438
0.20043
0.220995
0.424476
0.439049
0.346633
0.37093
0.505761
0.48407
0.509886
0.464674
0.474118
0.544917
0.583608
0.547765
0.546376
-0.21239
-0.112576
-0.515317
-0.383701
-0.503414
-0.45202
-0.647293
-0.578245
-0.637554
-0.613449
-0.709125
-0.674061
-0.559839
-0.541597
-0.599513
-0.444747
-0.418525
-0.516454
-0.481317
-0.484261
-0.582751
-0.55024
-0.309736
-0.42204
-0.475153
-0.463598
-0.518425
-0.382514
-0.378626
-0.429896
-0.282218
-0.270413
-0.366939
-0.325499
-0.347467
-0.406653
-0.0572901
-0.253868
-0.18852
-0.250307
-0.221815
-0.320127
-0.285902
-0.153912
-0.213257
-0.0281307
-0.124233
-0.092249
-0.0854205
-0.184747
-0.155045
-0.164155
-0.370959
-0.314517
-0.384771
-0.343236
-0.444792
-0.415327
-0.284747
-0.35306
-0.138805
-0.241054
-0.213398
-0.18867
-0.293579
-0.267765
0.156687
0.211041
-0.0374045
0.0417626
-0.0371476
0.000958051
-0.127105
-0.083575
0.08525
0.0124768
0.240628
0.124402
0.161228
0.183106
0.0570628
0.089742
0.373195
0.39754
0.261903
0.301978
0.255953
0.281413
0.208567
0.231617
0.308934
0.323685
0.281683
0.385138
0.410659
0.349159
0.366665
0.385067
0.316757
0.332545
0.604027
0.491104
0.498089
0.447167
0.494517
0.431286
0.439038
0.501833
0.455702
0.597519
0.550358
0.549092
0.552728
-2.00077
-1.26002
-0.277212
-1.46754
-1.69955
-0.906102
-1.02258
-1.79148
-1.44249
-1.86302
-1.58482
-1.63368
-1.90628
-1.76002
-1.93471
-1.81401
-1.8363
-1.95571
-1.88784
-1.78493
-1.64511
-1.67655
-1.73343
-1.51769
-1.54289
-1.70024
-1.6134
-1.63179
-1.55218
-1.56674
-1.64582
-1.60015
-1.48118
-1.49398
-1.57914
-1.5314
-1.65785
-1.5894
-1.66788
-1.62458
-1.71619
-1.85181
-1.77938
-1.50241
-1.10478
-1.20603
-1.37115
-1.60581
-1.44033
-1.48354
-1.54788
-1.55541
-1.47219
-1.49549
-1.57758
-1.52623
-1.4067
-1.42884
-1.51657
-1.46308
-1.59769
-1.53546
-1.61575
-1.5674
-1.3878
-1.18689
-1.2457
-1.32071
-1.44662
-1.35516
-1.38215
-1.41525
-1.32569
-1.22448
-1.25573
-1.29168
-1.14705