# vtk DataFile Version 2.0

ASCII

DATASET UNSTRUCTURED_GRID
POINTS 54191 float
0 0.96875 -4.125
0.03125 0.96875 -4.125
0.03125 1 -4.125
0 1 -4.125
0.03125 0.96875 -4.125
0.0625 0.96875 -4.125
0.0625 1 -4.125
0.03125 1 -4.125
0.03125 0.9375 -4.125
0.0625 0.9375 -4.125
0.0625 0.96875 -4.125
0.03125 0.96875 -4.125
0 0.9375 -4.125
0.03125 0.9375 -4.125
0.03125 0.96875 -4.125
0 0.96875 -4.125
0.0625 0.96875 -4.125
0.09375 0.96875 -4.125
0.09375 1 -4.125
0.0625 1 -4.125
0.09375 0.96875 -4.125
0.125 0.96875 -4.125
0.125 1 -4.125
0.09375 1 -4.125
0.09375 0.9375 -4.125
0.125 0.9375 -4.125
0.125 0.96875 -4.125
0.09375 0.96875 -4.125
0.0625 0.9375 -4.125
0.09375 0.9375 -4.125
0.09375 0.96875 -4.125
0.0625 0.96875 -4.125
0.0625 0.90625 -4.125
0.09375 0.90625 -4.125
0.09375 0.9375 -4.125
0.0625 0.9375 -4.125
0.09375 0.90625 -4.125
0.125 0.90625 -4.125
0.125 0.9375 -4.125
0.09375 0.9375 -4.125
0.09375 0.875 -4.125
0.125 0.875 -4.125
0.125 0.90625 -4.125
0.09375 0.90625 -4.125
0.0625 0.875 -4.125
0.09375 0.875 -4.125
0.09375 0.90625 -4.125
0.0625 0.90625 -4.125
0 0.90625 -4.125
0.03125 0.90625 -4.125
0.03125 0.9375 -4.125
0 0.9375 -4.125
0.03125 0.90625 -4.125
0.0625 0.90625 -4.125
0.0625 0.9375 -4.125
0.03125 0.9375 -4.125
0.03125 0.875 -4.125
0.0625 0.875 -4.125
0.0625 0.90625 -4.125
0.03125 0.90625 -4.125
0 0.875 -4.125
0.03125 0.875 -4.125
0.03125 0.90625 -4.125
0 0.90625 -4.125
0.125 0.96875 -4.125
0.15625 0.96875 -4.125
0.15625 1 -4.125
0.125 1 -4.125
0.15625 0.96875 -4.125
0.1875 0.96875 -4.125
0.1875 1 -4.125
0.15625 1 -4.125
0.15625 0.9375 -4.125
0.1875 0.9375 -4.125
0.1875 0.96875 -4.125
0.15625 0.96875 -4.125
0.125 0.9375 -4.125
0.15625 0.9375 -4.125
0.15625 0.96875 -4.125
0.125 0.96875 -4.125
0.1875 0.96875 -4.125
0.21875 0.96875 -4.125
0.21875 1 -4.125
0.1875 1 -4.125
0.21875 0.96875 -4.125
0.25 0.96875 -4.125
0.25 1 -4.125
0.21875 1 -4.125
0.21875 0.9375 -4.125
0.25 0.9375 -4.125
0.25 0.96875 -4.125
0.21875 0.96875 -4.125
0.1875 0.9375 -4.125
0.21875 0.9375 -4.125
0.21875 0.96875 -4.125
0.1875 0.96875 -4.125
0.1875 0.90625 -4.125
0.21875 0.90625 -4.125
0.21875 0.9375 -4.125
0.1875 0.9375 -4.125
0.21875 0.90625 -4.125
0.25 0.90625 -4.125
0.25 0.9375 -4.125
0.21875 0.9375 -4.125
0.21875 0.875 -4.125
0.25 0.875 -4.125
0.25 0.90625 -4.125
0.21875 0.90625 -4.125
0.1875 0.875 -4.125
0.21875 0.875 -4.125
0.21875 0.90625 -4.125
0.1875 0.90625 -4.125
0.125 0.90625 -4.125
0.15625 0.90625 -4.125
0.15625 0.9375 -4.125
0.125 0.9375 -4.125
0.15625 0.90625 -4.125
0.1875 0.90625 -4.125
0.1875 0.9375 -4.125
0.15625 0.9375 -4.125
0.15625 0.875 -4.125
0.1875 0.875 -4.125
0.1875 0.90625 -4.125
0.15625 0.90625 -4.125
0.125 0.875 -4.125
0.15625 0.875 -4.125
0.15625 0.90625 -4.125
0.125 0.90625 -4.125
0.125 0.84375 -4.125
0.15625 0.84375 -4.125
0.15625 0.875 -4.125
0.125 0.875 -4.125
0.15625 0.84375 -4.125
0.1875 0.84375 -4.125
0.1875 0.875 -4.125
0.15625 0.875 -4.125
0.15625 0.8125 -4.125
0.1875 0.8125 -4.125
0.1875 0.84375 -4.125
0.15625 0.84375 -4.125
0.125 0.8125 -4.125
0.15625 0.8125 -4.125
0.15625 0.84375 -4.125
0.125 0.84375 -4.125
0.1875 0.84375 -4.125
0.21875 0.84375 -4.125
0.21875 0.875 -4.125
0.1875 0.875 -4.125
0.21875 0.84375 -4.125
0.25 0.84375 -4.125
0.25 0.875 -4.125
0.21875 0.875 -4.125
0.21875 0.8125 -4.125
0.25 0.8125 -4.125
0.25 0.84375 -4.125
0.21875 0.84375 -4.125
0.1875 0.8125 -4.125
0.21875 0.8125 -4.125
0.21875 0.84375 -4.125
0.1875 0.84375 -4.125
0.1875 0.78125 -4.125
0.21875 0.78125 -4.125
0.21875 0.8125 -4.125
0.1875 0.8125 -4.125
0.21875 0.78125 -4.125
0.25 0.78125 -4.125
0.25 0.8125 -4.125
0.21875 0.8125 -4.125
0.21875 0.75 -4.125
0.25 0.75 -4.125
0.25 0.78125 -4.125
0.21875 0.78125 -4.125
0.1875 0.75 -4.125
0.21875 0.75 -4.125
0.21875 0.78125 -4.125
0.1875 0.78125 -4.125
0.125 0.78125 -4.125
0.15625 0.78125 -4.125
0.15625 0.8125 -4.125
0.125 0.8125 -4.125
0.15625 0.78125 -4.125
0.1875 0.78125 -4.125
0.1875 0.8125 -4.125
0.15625 0.8125 -4.125
0.15625 0.75 -4.125
0.1875 0.75 -4.125
0.1875 0.78125 -4.125
0.15625 0.78125 -4.125
0.125 0.75 -4.125
0.15625 0.75 -4.125
0.15625 0.78125 -4.125
0.125 0.78125 -4.125
0 0.84375 -4.125
0.03125 0.84375 -4.125
0.03125 0.875 -4.125
0 0.875 -4.125
0.03125 0.84375 -4.125
0.0625 0.84375 -4.125
0.0625 0.875 -4.125
0.03125 0.875 -4.125
0.03125 0.8125 -4.125
0.0625 0.8125 -4.125
0.0625 0.84375 -4.125
0.03125 0.84375 -4.125
0 0.8125 -4.125
0.03125 0.8125 -4.125
0.03125 0.84375 -4.125
0 0.84375 -4.125
0.0625 0.84375 -4.125
0.09375 0.84375 -4.125
0.09375 0.875 -4.125
0.0625 0.875 -4.125
0.09375 0.84375 -4.125
0.125 0.84375 -4.125
0.125 0.875 -4.125
0.09375 0.875 -4.125
0.09375 0.8125 -4.125
0.125 0.8125 -4.125
0.125 0.84375 -4.125
0.09375 0.84375 -4.125
0.0625 0.8125 -4.125
0.09375 0.8125 -4.125
0.09375 0.84375 -4.125
0.0625 0.84375 -4.125
0.0625 0.78125 -4.125
0.09375 0.78125 -4.125
0.09375 0.8125 -4.125
0.0625 0.8125 -4.125
0.09375 0.78125 -4.125
0.125 0.78125 -4.125
0.125 0.8125 -4.125
0.09375 0.8125 -4.125
0.09375 0.75 -4.125
0.125 0.75 -4.125
0.125 0.78125 -4.125
0.09375 0.78125 -4.125
0.0625 0.75 -4.125
0.09375 0.75 -4.125
0.09375 0.78125 -4.125
0.0625 0.78125 -4.125
0 0.78125 -4.125
0.03125 0.78125 -4.125
0.03125 0.8125 -4.125
0 0.8125 -4.125
0.03125 0.78125 -4.125
0.0625 0.78125 -4.125
0.0625 0.8125 -4.125
0.03125 0.8125 -4.125
0.03125 0.75 -4.125
0.0625 0.75 -4.125
0.0625 0.78125 -4.125
0.03125 0.78125 -4.125
0 0.75 -4.125
0.03125 0.75 -4.125
0.03125 0.78125 -4.125
0 0.78125 -4.125
0.25 0.96875 -4.125
0.28125 0.96875 -4.125
0.28125 1 -4.125
0.25 1 -4.125
0.28125 0.96875 -4.125
0.3125 0.96875 -4.125
0.3125 1 -4.125
0.28125 1 -4.125
0.28125 0.9375 -4.125
0.3125 0.9375 -4.125
0.3125 0.96875 -4.125
0.28125 0.96875 -4.125
0.25 0.9375 -4.125
0.28125 0.9375 -4.125
0.28125 0.96875 -4.125
0.25 0.96875 -4.125
0.3125 0.96875 -4.125
0.34375 0.96875 -4.125
0.34375 1 -4.125
0.3125 1 -4.125
0.34375 0.96875 -4.125
0.375 0.96875 -4.125
0.375 1 -4.125
0.34375 1 -4.125
0.34375 0.9375 -4.125
0.375 0.9375 -4.125
0.375 0.96875 -4.125
0.34375 0.96875 -4.125
0.3125 0.9375 -4.125
0.34375 0.9375 -4.125
0.34375 0.96875 -4.125
0.3125 0.96875 -4.125
0.3125 0.90625 -4.125
0.34375 0.90625 -4.125
0.34375 0.9375 -4.125
0.3125 0.9375 -4.125
0.34375 0.90625 -4.125
0.375 0.90625 -4.125
0.375 0.9375 -4.125
0.34375 0.9375 -4.125
0.34375 0.875 -4.125
0.375 0.875 -4.125
0.375 0.90625 -4.125
0.34375 0.90625 -4.125
0.3125 0.875 -4.125
0.34375 0.875 -4.125
0.34375 0.90625 -4.125
0.3125 0.90625 -4.125
0.25 0.90625 -4.125
0.28125 0.90625 -4.125
0.28125 0.9375 -4.125
0.25 0.9375 -4.125
0.28125 0.90625 -4.125
0.3125 0.90625 -4.125
0.3125 0.9375 -4.125
0.28125 0.9375 -4.125
0.28125 0.875 -4.125
0.3125 0.875 -4.125
0.3125 0.90625 -4.125
0.28125 0.90625 -4.125
0.25 0.875 -4.125
0.28125 0.875 -4.125
0.28125 0.90625 -4.125
0.25 0.90625 -4.125
0.375 0.96875 -4.125
0.40625 0.96875 -4.125
0.40625 1 -4.125
0.375 1 -4.125
0.40625 0.96875 -4.125
0.4375 0.96875 -4.125
0.4375 1 -4.125
0.40625 1 -4.125
0.40625 0.9375 -4.125
0.4375 0.9375 -4.125
0.4375 0.96875 -4.125
0.40625 0.96875 -4.125
0.375 0.9375 -4.125
0.40625 0.9375 -4.125
0.40625 0.96875 -4.125
0.375 0.96875 -4.125
0.4375 0.96875 -4.125
0.46875 0.96875 -4.125
0.46875 1 -4.125
0.4375 1 -4.125
0.46875 0.96875 -4.125
0.5 0.96875 -4.125
0.5 1 -4.125
0.46875 1 -4.125
0.46875 0.9375 -4.125
0.5 0.9375 -4.125
0.5 0.96875 -4.125
0.46875 0.96875 -4.125
0.4375 0.9375 -4.125
0.46875 0.9375 -4.125
0.46875 0.96875 -4.125
0.4375 0.96875 -4.125
0.4375 0.90625 -4.125
0.46875 0.90625 -4.125
0.46875 0.9375 -4.125
0.4375 0.9375 -4.125
0.46875 0.90625 -4.125
0.5 0.90625 -4.125
0.5 0.9375 -4.125
0.46875 0.9375 -4.125
0.46875 0.875 -4.125
0.5 0.875 -4.125
0.5 0.90625 -4.125
0.46875 0.90625 -4.125
0.4375 0.875 -4.125
0.46875 0.875 -4.125
0.46875 0.90625 -4.125
0.4375 0.90625 -4.125
0.375 0.90625 -4.125
0.40625 0.90625 -4.125
0.40625 0.9375 -4.125
0.375 0.9375 -4.125
0.40625 0.90625 -4.125
0.4375 0.90625 -4.125
0.4375 0.9375 -4.125
0.40625 0.9375 -4.125
0.40625 0.875 -4.125
0.4375 0.875 -4.125
0.4375 0.90625 -4.125
0.40625 0.90625 -4.125
0.375 0.875 -4.125
0.40625 0.875 -4.125
0.40625 0.90625 -4.125
0.375 0.90625 -4.125
0.375 0.84375 -4.125
0.40625 0.84375 -4.125
0.40625 0.875 -4.125
0.375 0.875 -4.125
0.40625 0.84375 -4.125
0.4375 0.84375 -4.125
0.4375 0.875 -4.125
0.40625 0.875 -4.125
0.40625 0.8125 -4.125
0.4375 0.8125 -4.125
0.4375 0.84375 -4.125
0.40625 0.84375 -4.125
0.375 0.8125 -4.125
0.40625 0.8125 -4.125
0.40625 0.84375 -4.125
0.375 0.84375 -4.125
0.4375 0.84375 -4.125
0.46875 0.84375 -4.125
0.46875 0.875 -4.125
0.4375 0.875 -4.125
0.46875 0.84375 -4.125
0.5 0.84375 -4.125
0.5 0.875 -4.125
0.46875 0.875 -4.125
0.46875 0.8125 -4.125
0.5 0.8125 -4.125
0.5 0.84375 -4.125
0.46875 0.84375 -4.125
0.4375 0.8125 -4.125
0.46875 0.8125 -4.125
0.46875 0.84375 -4.125
0.4375 0.84375 -4.125
0.4375 0.78125 -4.125
0.46875 0.78125 -4.125
0.46875 0.8125 -4.125
0.4375 0.8125 -4.125
0.46875 0.78125 -4.125
0.5 0.78125 -4.125
0.5 0.8125 -4.125
0.46875 0.8125 -4.125
0.46875 0.75 -4.125
0.5 0.75 -4.125
0.5 0.78125 -4.125
0.46875 0.78125 -4.125
0.4375 0.75 -4.125
0.46875 0.75 -4.125
0.46875 0.78125 -4.125
0.4375 0.78125 -4.125
0.375 0.78125 -4.125
0.40625 0.78125 -4.125
0.40625 0.8125 -4.125
0.375 0.8125 -4.125
0.40625 0.78125 -4.125
0.4375 0.78125 -4.125
0.4375 0.8125 -4.125
0.40625 0.8125 -4.125
0.40625 0.75 -4.125
0.4375 0.75 -4.125
0.4375 0.78125 -4.125
0.40625 0.78125 -4.125
0.375 0.75 -4.125
0.40625 0.75 -4.125
0.40625 0.78125 -4.125
0.375 0.78125 -4.125
0.25 0.84375 -4.125
0.28125 0.84375 -4.125
0.28125 0.875 -4.125
0.25 0.875 -4.125
0.28125 0.84375 -4.125
0.3125 0.84375 -4.125
0.3125 0.875 -4.125
0.28125 0.875 -4.125
0.28125 0.8125 -4.125
0.3125 0.8125 -4.125
0.3125 0.84375 -4.125
0.28125 0.84375 -4.125
0.25 0.8125 -4.125
0.28125 0.8125 -4.125
0.28125 0.84375 -4.125
0.25 0.84375 -4.125
0.3125 0.84375 -4.125
0.34375 0.84375 -4.125
0.34375 0.875 -4.125
0.3125 0.875 -4.125
0.34375 0.84375 -4.125
0.375 0.84375 -4.125
0.375 0.875 -4.125
0.34375 0.875 -4.125
0.34375 0.8125 -4.125
0.375 0.8125 -4.125
[...]
POINT_DATA 54191
SCALARS "velocity_y" float 1
LOOKUP_TABLE default
-4.125
-4.125
-4.125
-4.125
-4.125
-4.125
-4.125
-4.125
-4.125
-4.125
-4.125
-4.125
-4.125
-4.125
-4.125
-4.125
-4.125
-4.125
-4.125
-4.125
-4.125
-4.125
-4.125
-4.125
-4.125
-4.125
-4.125
-4.125
-4.125
-4.125
-4.125
-4.125
-4.125
-4.125
-4.125
-4.125
-4.125
-4.125
-4.125
-4.125
-4.125
-4.125
-4.125
-4.125
-4.125
-4.125
-4.125
-4.125
-4.125
-4.125
-4.125
-4.125
-4.125
-4.125
-4.125
-4.125
-4.125
-4.125
-4.125
-4.125
-4.125
-4.125
-4.125
-4.125
-4.125
-4.125
-4.125
-4.125
-4.125
-4.125
-4.125
-4.125
-4.125
-4.125
-4.125
-4.125
-4.125
-4.125
-4.125
-4.125
-4.125
-4.125
-4.125
-4.125
-4.125
-4.125
-4.125
-4.125
-4.125
-4.125
-4.125
-4.125
-4.125
-4.125
-4.125
-4.125
-4.125
-4.125
-4.125
-4.125
-4.125
-4.125
-4.125
-4.125
-4.125
-4.125
-4.125
-4.125
-4.125
-4.125
-4.125
-4.125
-4.125
-4.125
-4.125
-4.125
-4.125
-4.125
-4.125
-4.125
-4.125
-4.125
-4.125
-4.125
-4.125
-4.125
-4.125
-4.125
-4.125
-4.125
-4.125
-4.125
-4.125
-4.125
-4.125
-4.125
-4.125
-4.125
-4.125
-4.125
-4.125
-4.125
-4.125
-4.125
-4.125
-4.125
-4.125
-4.125
-4.125
-4.125
-4.125
-4.125
-4.125
-4.125
-4.125
-4.125
-4.125
-4.125
-4.125
-4.125
-4.125
-4.125
-4.125
-4.125
-4.125
-4.125
-4.125
-4.125
-4.125
-4.125
-4.125
-4.125
-4.125
-4.125
-4.125
-4.125
-4.125
-4.125
-4.125
-4.125
-4.125
-4.125
-4.125
-4.125
-4.125
-4.125
-4.125
-4.125
-4.125
-4.125
-4.125
-4.125
-4.125
-4.125
-4.125
-4.125
-4.125
-4.125
-4.125
-4.125
-4.125
-4.125
-4.125
-4.125
-4.125
-4.125
-4.125
-4.125
-4.125
-4.125
-4.125
-4.125
-4.125
-4.125
-4.125
-4.125
-4.125
-4.125
-4.125
-4.125
-4.125
-4.125
-4.125
-4.125
-4.125
-4.125
-4.125
-4.125
-4.125
-4.125
-4.125
-4.125
-4.125
-4.125
-4.125
-4.125
-4.125
-4.125
-4.125
-4.125
-4.125
-4.125
-4.125
-4.125
-4.125
-4.125
-4.125
-4.125
-4.125
-4.125
-4.125
-4.125
-4.125
-4.125
-4.125
-4.125
-4.125
-4.125
-4.125
-4.125
-4.125
-4.125
-4.125
-4.125
-4.125
-4.125
-4.125
-4.125
-4.125
-4.125
-4.125
-4.125
-4.125
-4.125
-4.125
-4.125
-4.125
-4.125
-4.125
-4.125
-4.125
-4.125
-4.125
-4.125
-4.125
-4.125
-4.125
-4.125
-4.125
-4.125
-4.125
-4.125
-4.125
-4.125
-4.125
-4.125
-4.125
-4.125
-4.125
-4.125
-4.125
-4.125
-4.125
-4.125
-4.125
-4.125
-4.125
-4.125
-4.125
-4.125
-4.125
-4.125
-4.125
-4.125
-4.125
-4.125
-4.125
-4.125
-4.125
-4.125
-4.125
-4.125
-4.125
-4.125
-4.125
-4.125
-4.125
-4.125
-4.125
-4.125
-4.125
-4.125
-4.125
-4.125
-4.125
-4.125
-4.125
-4.125
-4.125
-4.125
-4.125
-4.125
-4.125
-4.125
-4.125
-4.125
-4.125
-4.125
-4.125
-4.125
-4.125
-4.125
-4.125
-4.125
-4.125
-4.125
-4.125
-4.125
-4.125
-4.125
-4.125
-4.125
-4.125
-4.125
-4.125
-4.125
-4.125
-4.125
-4.125
-4.125
-4.125
-4.125
-4.125
-4.125
-4.125
-4.125
-4.125
-4.125
-4.125
-4.125
-4.125
-4.125
-4.125
-4.125
-4.125
-4.125
-4.125
-4.125
-4.125
-4.125
-4.125
-4.125
-4.125
-4.125
-4.125
-4.125
-4.125
-4.125
-4.125
-4.125
-4.125
-4.125
-4.125
-4.125
-4.125
-4.125
-4.125
-4.125
-4.125
-4.125
-4.125
-4.125
-4.125
-4.125
-4.125
-4.125
-4.125
-4.125
-4.125
-4.125
-4.125
-4.125
-4.125
-4.125
-4.125
-4.125
-4.125
-4.125
-4.125
-4.125
-4.125
-4.125
-4.125
-4.125
-4.125
-4.125
-4.125
-4.125
-4.125
-4.125
-4.125
-4.125
-4.125
-4.125
-4.125
-4.125
-4.125
-4.125
-4.125
-4.125
-4.125
-4.125
-4.125
-4.125
-4.125
-4.125
-4.125
-4.125
-4.125
-4.125
-4.125
-4.125
-4.125
-4.125
-4.125
-4.125
-4.125
-4.125
-4.125
-4.125
-4.125
-4.125
-4.125
-4.125
-4.125
-4.125
-4.125
-4.125
-4.125
-4.125
-4.125
-4.125
-4.125
-4.125
-4.125
-4.125
-4.125
-4.125
-4.125
-4.125
-4.125
-4.125
-4.125
-4.125
-4.125
-4.125
-4.125
-4.125
-4.125
-4.125
-4.125
-4.125
-4.125
-4.125
-4.125
-4.125
-4.125
-4.125
-4.125
-4.125
-4.125
-4.125
-4.125
-4.125
-4.125
-4.125
-4.125
-4.125
-4.125
-4.125
-4.125
-4.125
-4.125
-4.125
-4.125
-4.125
-4.125
-4.125
-4.125
-4.125
-4.125
-4.125
-4.125
-4.125
-4.125
-4.125
-4.125
-4.125
-4.125
-4.125
-4.125
-4.125
-4.125
-4.125
-4.125
-4.125
-4.125
-4.125
-4.125
-4.125
-4.125
-4.125
-4.125
-4.125
-4.125
-4.125
-4.125
-4.125
-4.125
-4.125
-4.125
-4.125
-4.125
-4.125
-4.125
-4.125
-4.125
-4.125
-4.125
-4.125
-4.125
-4.125
-4.125
-4.125
-4.125
-4.125
-4.125
-4.125
-4.125
-4.125
-4.125
-4.125
-4.125
-4.125
-4.125
-4.125
-4.125
-4.125
-4.125
-4.125
-4.125
-4.125
-4.125
-4.125
-4.125
-4.125
-4.125
-4.125
-4.125
-4.125
-4.125
-4.125
-4.125
-4.125
-4.125
-4.125
-4.125
-4.125
-4.125
-4.125
-4.125
-4.125
-4.125
-4.125
-4.125
-4.125
-4.125
-4.125
-4.125
-4.125
-4.125
-4.125
-4.125
-4.125
-4.125
-4.125
-4.125
-4.125
-4.125
-4.125
-4.125
-4.125
-4.125
-4.125
-4.125
-4.125
-4.125
-4.125
-4.125
-4.125
-4.125
-4.125
-4.125
-4.125
-4.125
-4.125
-4.125
-4.125
-4.125
-4.125
-4.125
-4.125
-4.125
-4.125
-4.125
-4.125
-4.125
-4.125
-4.125
-4.125
-4.125
-4.125
-4.125
-4.125
-4.12499
-4.12499
-4.125
-4.125
-4.125
-4.12499
-4.125
-4.125
-4.12499
-4.12499
-4.12499
-4.125
-4.12499
-4.12498
-4.12499
-4.12499
-4.12499
-4.12498
-4.12498
-4.12499
-4.12499
-4.12499
-4.12499
-4.12499
-4.125
-4.12499
-4.125
-4.125
-4.12499
-4.12499
-4.125
-4.125
-4.12499
-4.12499
-4.12499
-4.12499
-4.12499
-4.12499
-4.12499
-4.125
-4.125
-4.125
-4.125
-4.125
-4.125
-4.125
-4.125
-4.125
-4.125
-4.125
-4.125
-4.125
-4.125
-4.125
-4.125
-4.125
-4.125
-4.125
-4.125
-4.125
-4.125
-4.125
-4.125
-4.125
-4.125
-4.125
-4.125
-4.125
-4.125
-4.125
-4.125
-4.125
-4.125
-4.125
-4.125
-4.125
-4.125
-4.125
-4.125
-4.125
-4.12499
-4.12499
-4.125
-4.125
-4.125
-4.12499
-4.125
-4.125
-4.125
-4.125
-4.125
-4.125
-4.125
-4.125
-4.125
-4.125
-4.125
-4.125
-4.125
-4.125
-4.125
-4.125
-4.125
-4.125
-4.125
-4.125
-4.125
-4.125
-4.125
-4.125
-4.125
-4.125
-4.125
-4.125
-4.125
-4.125
-4.125
-4.125
-4.125
-4.125
-4.125
-4.125
-4.125
-4.125
-4.125
-4.125
-4.125
-4.125
-4.125
-4.125
-4.125
-4.125
-4.125
-4.125
-4.125
-4.125
-4.125
-4.125
-4.125
-4.125
-4.125
-4.125
-4.125
-4.125
-4.125
-4.125
-4.125
-4.125
-4.125
-4.125
-4.125
-4.125
-4.125
-4.125
-4.125
-4.125
-4.125
-4.125
-4.125
-4.125
-4.125
-4.125
-4.125
-4.125
-4.125
-4.125
-4.125
-4.125
-4.125
-4.125
-4.125
-4.125
-4.125
-4.125
-4.125
-4.125
-4.125
-4.125
-4.125
-4.125
-4.125
-4.125
-4.125
-4.125
-4.125
-4.125
-4.125
-4.125
-4.125
-4.125
-4.125
-4.125
-4.125
-4.125
-4.125
-4.125
-4.125
-4.125
-4.125
-4.125
-4.125
-4.125
-4.125
-4.125
-4.125
-4.125
-4.125
-4.125
-4.125
-4.125
-4.125
-4.125
-4.125
-4.125
-4.125
-4.125
-4.125
-4.125
-4.125
-4.125
-4.125
-4.125
-4.125
-4.125
-4.125
-4.125
-4.125
-4.125
-4.125
-4.125
-4.125
-4.125
-4.125
-4.125
-4.125
-4.125
-4.125
-4.125
-4.125
-4.125
-4.125
-4.125
-4.125
-4.125
-4.125
-4.125
-4.125
-4.125
-4.125
-4.125
-4.125
-4.125
-4.125
-4.125
-4.125
-4.125
-4.125
-4.125
-4.125
-4.125
-4.125
-4.125
-4.125
-4.125
-4.125
-4.125
-4.125
-4.125
-4.125
-4.125
-4.125
-4.125
-4.125
-4.125
-4.125
-4.125
-4.125
-4.125
-4.125
-4.125
-4.125
-4.125
-4.125
-4.125
-4.125
-4.125
-4.125
-4.125
-4.125
-4.125
-4.125
-4.125
-4.125
-4.125
-4.125
-4.125
-4.125
-4.125
-4.125
-4.125
-4.125
-4.125
-4.125
-4.125
-4.125
-4.125
-4.125
-4.125
-4.125
-4.125
-4.125
-4.125
-4.125
-4.125
-4.125
-4.125
-4.125
-4.125
-4.125
-4.125
-4.125
-4.125
-4.125
-4.125
-4.125
-4.125
-4.125
-4.125
-4.125
-4.125
-4.125
-4.125
-4.125
-4.125
-4.125
-4.125
-4.125
-4.125
-4.125
-4.125
-4.125
-4.125
-4.125
-4.125
-4.125
-4.125
-4.125
-4.125
-4.125
-4.125
-4.125
-4.125
-4.125
-4.125
-4.125
-4.125
-4.125
-4.125
-4.125
-4.125
-4.125
-4.125
-4.125
-4.125
-4.125
-4.125
-4.125
-4.125
-4.125
-4.125
-4.125
-4.125
-4.125
-4.125
-4.125
-4.125
-4.125
-4.125
-4.125
-4.125
-4.125
-4.125
-4.125
-4.125
-4.125
-4.125
-4.125
-4.125
-4.125
-4.125
-4.125
-4.125
-4.125
-4.125
-4.125
-4.125
-4.125
-4.125
-4.125
-4.125
-4.125
-4.125
-4.125
-4.125
-4.125
-4.125
-4.125
-4.125
-4.125
-4.125
-4.125
-4.125
-4.125
-4.125
-4.125
-4.125
-4.125
-4.125
-4.125
-4.125
-4.125
-4.125
-4.125
-4.125
-4.125
-4.125
-4.125
-4.125
-4.125
-4.125
-4.125
-4.125
-4.125
-4.125
-4.125
-4.125
-4.125
-4.125
-4.125
-4.125
-4.125
-4.125
-4.125
-4.125
-4.125
-4.125
-4.125
-4.125
-4.125
-4.125
-4.125
-4.125
-4.125
-4.125
-4.125
-4.125
-4.125
-4.125
-4.125
-4.125
-4.125
-4.125
-4.125
-4.125
-4.125
-4.125
-4.125
-4.125
-4.125
-4.125
-4.125
-4.125
-4.125
-4.125
-4.125
-4.125
-4.125
-4.125
-4.125
-4.125
-4.125
-4.125
-4.125
-4.125
-4.125
-4.125
-4.125
-4.125
-4.125
-4.125
-4.125
-4.125
-4.125
-4.125
-4.125
-4.125
-4.125
-4.125
-4.125
-4.125
-4.125
-4.125
-4.125
-4.125
-4.125
-4.125
-4.125
-4.125
-4.125
-4.125
-4.125
-4.125
-4.125
-4.125
-4.125
-4.125
-4.125
-4.125
-4.125
-4.125
-4.125
-4.125
-4.125
-4.125
-4.125
-4.125
-4.125
-4.125
-4.125
-4.125
-4.125
-4.125
-4.125
-4.125
-4.125
-4.125
-4.125
-4.125
-4.125
-4.125
-4.125
-4.125
-4.125
-4.125
-4.125
-4.125
-4.125
-4.125
-4.125
-4.125
-4.125
-4.125
-4.125
-4.125
-4.125
-4.125
-4.125
-4.125
-4.125
-4.125
-4.125
-4.125
-4.125
-4.125
-4.125
-4.125
-4.125
-4.125
-4.125
-4.125
-4.125
-4.125
-4.125
-4.125
-4.125
-4.125
-4.125
-4.125
-4.125
-4.125
-4.125
-4.125
-4.125
-4.125
-4.125
-4.125
-4.125
-4.125
-4.125
-4.125
-4.125
-4.125
-4.125
-4.125
-4.125
-4.125
-4.125
-4.125
-4.125
-4.125
-4.125
-4.125
-4.125
-4.125
-4.125
-4.125
-4.125
-4.125
-4.125
-4.125
-4.125
-4.125
-4.125
-4.125
-4.125
-4.125
-4.125
-4.125
-4.125
-4.125
-4.125
-4.125
-4.125
-4.125
-4.125
-4.125
-4.125
-4.125
-4.125
-4.125
-4.125
-4.125
-4.125
-4.125
-4.125
-4.125
-4.125
-4.125
-4.125
-4.125
-4.125
-4.125
-4.125
-4.125
-4.125
-4.125
-4.125
-4.125
-4.125
-4.125
-4.125
-4.125
-4.125
-4.125
-4.125
-4.125
-4.125
-4.125
-4.125
-4.125
-4.125
-4.125
-4.125
-4.125
-4.125
-4.125
-4.125
-4.125
-4.125
-4.125
-4.125
-4.125
-4.125
-4.125
-4.125
-4.125
-4.125
-4.125
-4.125
-4.125
-4.125
-4.125
-4.125
-4.125
-4.125
-4.125
-4.125
-4.125
-4.125
-4.125
-4.125
-4.125
-4.125
-4.125
-4.125
-4.125
-4.125
-4.125
-4.125
-4.125
-4.125
-4.125
-4.125
-4.125
-4.125
-4.125
-4.125
-4.125
-4.125
-4.125
-4.125
-4.125
-4.125
-4.125
-4.125
-4.125
-4.125
-4.125
-4.125
-4.125
-4.125
-4.125
-4.125
-4.125
-4.125
-4.125
-4.125
-4.125
-4.125
-4.125
-4.125
-4.125
-4.125
-4.125
-4.125
-4.125
-4.125
-4.125
-4.125
-4.125
-4.125
-4.125
-4.125
-4.125
-4.125
-4.125
-4.125
-4.125
-4.125
-4.125
-4.125
-4.125
-4.125
-4.125
-4.125
-4.125
-4.125
-4.125
-4.125
-4.125
-4.125
-4.125
-4.125
-4.125
-4.125
-4.125
-4.125
-4.125
-4.125
-4.125
-4.125
-4.125
-4.125
-4.125
-4.125
-4.125
-4.125
-4.125
-4.125
-4.125
-4.125
-4.125
-4.125
-4.125
-4.125
-4.125
-4.125
-4.125
-4.125
-4.125
-4.125
-4.125
-4.125
-4.125
-4.125
-4.125
-4.125
-4.125
-4.125
-4.125
-4.125
-4.125
-4.125
-4.125
-4.125
-4.125
-4.125
-4.125
-4.125
-4.125
-4.125
-4.125
-4.125
-4.125
-4.125
-4.125
-4.125
-4.125
-4.125
-4.125
-4.125
-4.125
-4.125
-4.125
-4.125
-4.125
-4.125
-4.125
-4.125
-4.125
-4.125
-4.125
-4.125
-4.125
-4.125
-4.125
-4.125
-4.125
-4.125
-4.125
-4.125
-4.125
-4.125
-4.125
-4.125
-4.125
-4.125
-4.125
-4.125
-4.125
-4.125
-4.125
-4.125
-4.125
-4.125
-4.125
-4.125
-4.125
-4.125
-4.125
-4.125
-4.125
-4.125
-4.125
-4.125
-4.125
-4.125
-4.125
-4.125
-4.125
-4.125
-4.125
-4.125
-4.125
-4.125
-4.125
-4.125
-4.125
-4.125
-4.125
-4.125
-4.125
-4.125
-4.125
-4.125
-4.125
-4.125
-4.125
-4.125
-4.125
-4.125
-4.125
-4.125
-4.125
-4.125
-4.125
-4.12499
-4.12499
-4.125
-4.125
-4.125
-4.12499
-4.125
-4.125
-4.12498
-4.12497
-4.12499
-4.125
-4.12497
-4.12497
-4.12499
-4.12499
-4.12498
-4.12497
-4.12497
-4.12497
-4.12497
-4.12498
-4.12497
-4.12498
-4.12499
-4.12498
-4.125
-4.125
-4.12498
-4.12498
-4.125
-4.125
-4.12497
-4.12497
-4.12498
-4.12498
-4.12498
-4.12497
-4.12498
-4.12499
-4.125
-4.125
-4.125
-4.125
-4.125
-4.125
-4.125
-4.125
-4.12498
-4.12497
-4.125
-4.125
-4.12499
-4.12498
-4.125
-4.125
-4.125
-4.12499
-4.125
-4.125
-4.12499
-4.12499
-4.125
-4.125
-4.12497
-4.12496
-4.12499
-4.12499
-4.12497
-4.12497
-4.12499
-4.125
-4.12496
-4.12496
-4.12497
-4.12497
-4.12496
-4.12496
-4.12496
-4.12497
-4.12497
-4.12498
-4.12496
-4.12496
-4.12496
-4.12497
-4.12496
-4.12496
-4.12497
-4.12497
-4.12498
-4.12499
-4.12497
-4.12496
-4.12497
-4.12498
-4.12496
-4.12496
-4.12496
-4.12497
-4.12497
-4.12496
-4.12497
-4.12497
-4.12512
-4.12597
-4.12496
-4.12497
-4.12597
-4.12729
-4.12496
-4.12496
-4.13898
-4.14335
-4.12729
-4.12597
-4.13416
-4.13898
-4.12597
-4.12512
-4.12729
-4.12913
-4.12497
-4.12496
-4.12913
-4.13245
-4.12498
-4.12497
-4.14811
-4.15374
-4.13245
-4.12913
-4.14335
-4.14811
-4.12913
-4.12729
-4.156
-4.15648
-4.14811
-4.14335
-4.15648
-4.15856
-4.15374
-4.14811
-4.16064
-4.13869
-4.15856
-4.15648
-4.16058
-4.16064
-4.15648
-4.156
-4.146
-4.14985
-4.13898
-4.13416
-4.14985
-4.156
-4.14335
-4.13898
-4.15965
-4.16058
-4.156
-4.14985
-4.15143
-4.15965
-4.14985
-4.146
-4.12498
-4.12498
-4.12497
-4.12498
-4.12498
-4.12498
-4.12497
-4.12497
-4.12592
-4.12713
-4.12498
-4.12498
-4.12515
-4.12592
-4.12498
-4.12498
-4.12498
-4.12499
-4.12498
-4.12497
-4.12499
-4.12512
-4.12497
-4.12498
-4.1298
-4.13416
-4.12512
-4.12499
-4.12713
-4.1298
-4.12499
-4.12498
-4.13944
-4.14334
-4.1298
-4.12713
-4.14334
-4.146
-4.13416
-4.1298
-4.14805
-4.15143
-4.146
-4.14334
-4.14783
-4.14805
-4.14334
-4.13944
-4.13193
-4.13549
-4.12592
-4.12515
-4.13549
-4.13944
-4.12713
-4.12592
-4.14436
-4.14783
-4.13944
-4.13549
-4.14019
-4.14436
-4.13549
-4.13193
-4.125
-4.125
-4.125
-4.125
-4.125
-4.125
-4.125
-4.125
-4.125
-4.125
-4.125
-4.125
-4.125
-4.125
-4.125
-4.125
-4.125
-4.125
-4.125
-4.125
-4.125
-4.125
-4.125
-4.125
-4.125
-4.125
-4.125
-4.125
-4.125
-4.125
-4.125
-4.125
-4.125
-4.125
-4.125
-4.125
-4.125
-4.125
-4.125
-4.125
-4.125
-4.12499
-4.125
-4.125
-4.125
-4.125
-4.125
-4.125
-4.125
-4.125
-4.125
-4.125
-4.125
-4.125
-4.125
-4.125
-4.125
-4.125
-4.125
-4.125
-4.125
-4.125
-4.125
-4.125
-4.125
-4.125
-4.125
-4.125
-4.125
-4.125
-4.125
-4.125
-4.125
-4.125
-4.125
-4.125
-4.125
-4.125
-4.125
-4.125
-4.125
-4.125
-4.125
-4.125
-4.125
-4.125
-4.125
-4.125
-4.125
-4.125
-4.125
-4.125
-4.125
-4.125
-4.125
-4.125
-4.125
-4.12499
-4.125
-4.125
-4.12499
-4.12499
-4.125
-4.125
-4.12498
-4.12498
-4.12499
-4.12499
-4.12499
-4.12498
-4.12499
-4.125
-4.125
-4.125
-4.125
-4.125
-4.125
-4.125
-4.125
-4.125
-4.12499
-4.12499
-4.125
-4.125
-4.12499
-4.12499
-4.125
-4.125
-4.12499
-4.12498
-4.12499
-4.12499
-4.12498
-4.12498
-4.12499
-4.12499
-4.12498
-4.12498
-4.12498
-4.12498
-4.12498
-4.12498
-4.12498
-4.12499
-4.12498
-4.12498
-4.12498
-4.12499
-4.12498
-4.12498
-4.12498
-4.12498
-4.12499
-4.12515
-4.12498
-4.12498
-4.12498
-4.12499
-4.12498
-4.12498
-4.1261
-4.12845
-4.12499
-4.12498
-4.12845
-4.13193
-4.12515
-4.12499
-4.13865
-4.14019
-4.13193
-4.12845
-4.13478
-4.13865
-4.12845
-4.1261
-4.125
-4.12524
-4.12498
-4.12498
-4.12524
-4.1261
-4.12498
-4.12498
-4.1315
-4.13478
-4.1261
-4.12524
-4.12815
-4.1315
-4.12524
-4.125
-4.125
-4.12499
-4.125
-4.125
-4.12499
-4.12499
-4.125
-4.125
-4.12499
-4.12498
-4.12499
-4.12499
-4.12499
-4.12499
-4.12499
-4.125
-4.12499
-4.12499
-4.125
-4.125
-4.12499
-4.12499
-4.12499
-4.125
-4.12498
-4.12498
-4.12499
-4.12499
-4.12498
-4.12498
-4.12499
-4.12499
-4.12498
-4.12498
-4.12498
-4.12498
-4.12498
-4.125
-4.12498
-4.12498
-4.12584
-4.12815
-4.125
-4.12498
-4.12508
-4.12584
-4.12498
-4.12498
-4.12498
-4.12499
-4.12499
-4.12499
-4.12499
-4.12498
-4.12498
-4.12499
-4.125
-4.12508
-4.12498
-4.12499
-4.12498
-4.125
-4.12499
-4.12498
-4.1253
-4.12696
-4.125
-4.12498
-4.12696
-4.12984
-4.12508
-4.125
-4.13438
-4.13625
-4.12984
-4.12696
-4.13077
-4.13438
-4.12696
-4.1253
-4.12984
-4.13279
-4.12584
-4.12508
-4.13279
-4.13681
-4.12815
-4.12584
-4.1403
-4.14162
-4.13681
-4.13279
-4.13625
-4.1403
-4.13279
-4.12984
-4.14158
-4.14508
-4.1403
-4.13625
-4.14508
-4.14587
-4.14162
-4.1403
-4.1369
-3.67456
-4.14587
-4.14508
-3.89443
-3.89582
-4.14548
-4.14093
-4.01507
-4.01263
-3.9536
-4.07714
-4.1389
-4.04445
-4.07397
-4.09121
-3.9528
-3.92373
-3.99859
-4.02843
-3.97551
-3.98404
-4.04589
-4.06068
-4.02205
-4.10881
-3.78187
-3.78192
-3.95465
-3.86615
-3.83747
-3.8235
-3.90946
-3.87308
-3.72759
-3.72746
-3.82364
-3.77497
-3.83801
-3.92505
-3.90986
-3.87365
-3.98466
-3.94665
-4.01691
-4.07898
-3.95543
-4.04771
-4.04671
-4.00059
-4.08036
-4.1119
-4.04838
-4.09605
-4.09536
-4.07172
-4.11285
-4.14567
-4.1286
-4.1207
-4.14528
-4.14299
-4.11074
-4.09382
-4.1268
-4.14195
-4.11776
-4.0948
-4.07014
-4.12789
-4.14518
-4.14403
-4.13594
-4.14335
-4.1369
-4.14508
-4.14158
-4.13676
-4.1414
-4.13438
-4.13077
-4.1414
-4.14158
-4.13625
-4.13438
-4.14585
-4.14335
-4.14158
-4.1414
-4.14205
-4.14585
-4.1414
-4.13676
-4.13681
-4.1384
-4.1315
-4.12815
-4.1384
-4.14288
-4.13478
-4.1315
-4.1432
-4.14675
-4.14288
-4.1384
-4.14162
-4.1432
-4.1384
-4.13681
-4.14288
-4.1429
-4.13865
-4.13478
-4.1429
-4.14465
-4.14019
-4.13865
-4.14699
-4.14422
-4.14465
-4.1429
-4.14675
-4.14699
-4.1429
-4.14288
-3.98772
-3.49525
-4.14699
-4.14675
-3.72941
-3.79632
-4.14687
-4.06482
-3.92689
-3.85532
-3.82556
-3.99489
-4.02569
-3.92366
-3.92068
-3.88914
-3.97417
-4.00656
-3.94719
-3.79159
-3.77686
-3.87413
-3.83238
-3.87555
-3.96066
-3.9589
-3.91688
-4.02961
-4.0451
-4.00164
-3.60953
-3.64027
-3.86072
-3.73116
-3.66875
-3.6694
-3.77791
-3.72255
-3.55172
-3.56645
-3.68529
-3.61738
-3.71683
-3.8283
-3.7949
-3.75556
-3.89358
-3.8349
-3.96471
-4.03383
-3.87888
-3.99901
-3.97963
-3.92872
-4.05401
-4.08956
-4.00892
-4.0717
-4.0615
-4.03504
-4.10002
-4.11801
-4.14681
-4.10515
-4.06921
-4.03165
-4.08711
-4.08483
-4.0581
-4.05145
-4.0055
-4.10759
-4.12579
-3.49525
-2.83039
-4.14422
-4.14699
-3.14274
-3.40153
-4.14559
-3.79632
-3.59186
-3.31351
-3.35617
-3.69222
-3.64027
-3.49467
-3.40294
-3.40217
-3.56655
-3.56645
-3.48314
-3.22681
-3.24687
-3.42456
-3.32344
-3.47102
-3.64159
-3.59126
-3.5305
-3.74379
-3.71683
-3.65336
-2.98199
-3.09846
-3.49502
-3.22425
-3.06117
-3.09984
-3.28941
-3.17236
-2.90509
-2.96044
-3.16061
-3.02922
-3.2452
-3.35576
-3.17069
-3.29991
-3.28908
-3.22923
-3.32211
-3.44787
-3.42438
-3.37276
-3.41279
-3.41287
-3.35028
-3.54301
-3.53066
-3.47701
-3.74693
-3.85349
-3.5684
-3.79965
-3.71917
-3.64272
-3.56776
-3.68067
-3.65467
-3.61087
-3.48358
-3.6053
-3.52534
-3.65614
-3.71997
-3.78542
-3.93839
-3.99541
-3.84096
-3.96671
-3.92346
-3.88185
-4.03941
-4.06942
-3.98844
-4.05434
-4.03215
-4.01017
-4.09133
-4.10723
-3.96471
-3.9085
-3.87888
-3.79786
-3.74444
-3.83807
-3.8372
-3.79044
-3.75823
-3.69919
-3.88085
-3.85253
-3.81876
-3.93645
-3.92138
-3.88673
-4.05401
-4.02451
-4.00892
-3.96581
-4.10002
-4.08465
-4.0769
-4.0544
-4.12338
-1.57524
-1.10577
-2.83039
-3.49525
-1.33029
-1.83046
-3.14274
-2.36625
-2.08481
-1.67841
-1.93875
-1.45004
-1.49788
-1.80546
-1.74993
-1.621
-1.68471
-1.71144
-1.8713
-1.84247
-1.77618
-1.87345
-2.22188
-2.14349
-2.00511
-1.90327
-2.07343
-2.03901
-1.9703
-1.74119
-1.77401
-1.93847
-1.83786
-1.97696
-2.15247
-2.11122
-2.04325
-2.29312
-2.25247
-2.18094
-1.44134
-1.21564
-1.26758
-1.55717
-1.38019
-1.62844
-1.9545
-1.74804
-1.61709
-1.65076
-1.80999
-1.71166
-1.68753
-1.72747
-1.89172
-1.8492
-1.78761
-2.01884
-1.9123
-2.28707
-2.56546
-2.04928
-2.42253
-2.31464
-2.17855
-2.06419
-2.24571
-2.19727
-2.12988
-1.93764
-2.11309
-2.00013
-2.16565
-2.35391
-2.29789
-2.23091
-2.49302
-2.43725
-2.36664
-2.54642
-2.98199
-2.84028
-2.68924
-2.55285
-2.76369
-2.69966
-2.62524
-2.41387
-2.61684
-2.48242
-2.68511
-2.90509
-2.83212
-2.75758
-3.06117
-2.9878
-2.90883
-2.87627
-2.71647
-2.60952
-2.45809
-2.3374
-2.53277
-2.48515
-2.41028
-2.3854
-2.26642
-2.63991
-2.58431
-2.50978
-2.79522
-2.73975
-2.66094
-3.31351
-3.17007
-3.00029
-2.85497
-3.0839
-3.01954
-2.93604
-2.91912
-2.7762
-3.22681
-3.15294
-3.06914
-3.40294
-3.32843
-3.23933
-2.19804
-1.57524
-3.49525
-3.98772
-1.8687
-2.36625
-3.72941
-2.94283
-2.63896
-2.22332
-2.54163
-2.02849
-2.03925
-2.37789
-2.36344
-2.1966
-2.11199
-2.11099
-2.27878
-2.27923
-2.19385
-1.94743
-1.95238
-2.11679
-2.03054
-2.1295
-2.29951
-2.28551
-2.20639
-2.45856
-2.45084
-2.36696
-2.42256
-2.78667
-2.73416
-2.57395
-2.47396
-2.6529
-2.63599
-2.5538
-2.32093
-2.4972
-2.39637
-2.52848
-2.7118
-2.6781
-2.60226
-2.86365
-2.83635
-2.7561
-1.93875
-1.71786
-1.74993
-2.07716
-1.8906
-1.79221
-1.8026
-1.96388
-1.87643
-1.64557
-1.66092
-1.81931
-1.73079
-1.84247
-2.00703
-1.98205
-1.91131
-2.14923
-2.05475
-2.14349
-2.49902
-2.27929
-2.17616