# vtk DataFile Version 2.0

ASCII

DATASET UNSTRUCTURED_GRID
POINTS 37664 float
0 0.484375 0
0.015625 0.484375 0
0.015625 0.5 0
0 0.5 0
0.015625 0.484375 0
0.03125 0.484375 0
0.03125 0.5 0
0.015625 0.5 0
0.015625 0.46875 0
0.03125 0.46875 0
0.03125 0.484375 0
0.015625 0.484375 0
0 0.46875 0
0.015625 0.46875 0
0.015625 0.484375 0
0 0.484375 0
0.03125 0.484375 0
0.046875 0.484375 0
0.046875 0.5 0
0.03125 0.5 0
0.046875 0.484375 0
0.0625 0.484375 0
0.0625 0.5 0
0.046875 0.5 0
0.046875 0.46875 0
0.0625 0.46875 0
0.0625 0.484375 0
0.046875 0.484375 0
0.03125 0.46875 0
0.046875 0.46875 0
0.046875 0.484375 0
0.03125 0.484375 0
0.03125 0.453125 0
0.046875 0.453125 0
0.046875 0.46875 0
0.03125 0.46875 0
0.046875 0.453125 0
0.0625 0.453125 0
0.0625 0.46875 0
0.046875 0.46875 0
0.046875 0.4375 0
0.0625 0.4375 0
0.0625 0.453125 0
0.046875 0.453125 0
0.03125 0.4375 0
0.046875 0.4375 0
0.046875 0.453125 0
0.03125 0.453125 0
0 0.453125 0
0.015625 0.453125 0
0.015625 0.46875 0
0 0.46875 0
0.015625 0.453125 0
0.03125 0.453125 0
0.03125 0.46875 0
0.015625 0.46875 0
0.015625 0.4375 0
0.03125 0.4375 0
0.03125 0.453125 0
0.015625 0.453125 0
0 0.4375 0
0.015625 0.4375 0
0.015625 0.453125 0
0 0.453125 0
0.0625 0.484375 1.69407e-21
0.078125 0.484375 1.49886e-05
0.078125 0.5 2.07578e-05
0.0625 0.5 -1.69407e-21
0.078125 0.484375 1.49886e-05
0.09375 0.484375 2.9222e-06
0.09375 0.5 1.01644e-20
0.078125 0.5 2.07578e-05
0.078125 0.46875 3.38725e-06
0.09375 0.46875 2.44836e-05
0.09375 0.484375 2.9222e-06
0.078125 0.484375 1.49886e-05
0.0625 0.46875 -8.47033e-22
0.078125 0.46875 3.38725e-06
0.078125 0.484375 1.49886e-05
0.0625 0.484375 8.47033e-22
0.09375 0.484375 2.9222e-06
0.109375 0.484375 0.00171396
0.109375 0.5 0.00237062
0.09375 0.5 4.33681e-19
0.109375 0.484375 0.00171396
0.125 0.484375 0.0294022
0.125 0.5 0.0319695
0.109375 0.5 0.00237062
0.109375 0.46875 0.000170594
0.125 0.46875 0.0220913
0.125 0.484375 0.0294022
0.109375 0.484375 0.00171396
0.09375 0.46875 2.44836e-05
0.109375 0.46875 0.000170594
0.109375 0.484375 0.00171396
0.09375 0.484375 2.9222e-06
0.09375 0.453125 0.000108204
0.109375 0.453125 8.41864e-10
0.109375 0.46875 0.000170594
0.09375 0.46875 2.44836e-05
0.109375 0.453125 8.41864e-10
0.125 0.453125 0.0118362
0.125 0.46875 0.0220913
0.109375 0.46875 0.000170594
0.117188 0.453125 0.00591808
0.125 0.460938 0.0169638
0.117188 0.46875 0.011131
0.109375 0.460938 8.52975e-05
0.117188 0.460938 0.00852453
0.109375 0.4375 3.07137e-05
0.125 0.4375 0.00288797
0.125 0.453125 0.0118362
0.109375 0.453125 8.41864e-10
0.117188 0.4375 0.00145934
0.125 0.445312 0.00736207
0.117188 0.453125 0.00591808
0.109375 0.445312 1.53573e-05
0.117188 0.445312 0.00368871
0.09375 0.4375 5.18236e-05
0.109375 0.4375 3.07137e-05
0.109375 0.453125 8.41864e-10
0.09375 0.453125 0.000108204
0.0625 0.453125 2.11758e-22
0.078125 0.453125 -2.11758e-22
0.078125 0.46875 3.38725e-06
0.0625 0.46875 -2.11758e-22
0.078125 0.453125 6.77626e-21
0.09375 0.453125 0.000108204
0.09375 0.46875 2.44836e-05
0.078125 0.46875 3.38725e-06
0.078125 0.4375 0
0.09375 0.4375 5.18236e-05
0.09375 0.453125 0.000108204
0.078125 0.453125 0
0.0625 0.4375 0
0.078125 0.4375 0
0.078125 0.453125 0
0.0625 0.453125 0
0.0625 0.421875 0
0.078125 0.421875 0
0.078125 0.4375 0
0.0625 0.4375 0
0.078125 0.421875 0
0.09375 0.421875 5.50247e-06
0.09375 0.4375 5.18236e-05
0.078125 0.4375 0
0.078125 0.40625 4.23516e-22
0.09375 0.40625 -4.23516e-22
0.09375 0.421875 5.50247e-06
0.078125 0.421875 -4.23516e-22
0.0625 0.40625 0
0.078125 0.40625 0
0.078125 0.421875 0
0.0625 0.421875 0
0.09375 0.421875 5.50247e-06
0.109375 0.421875 0.000129682
0.109375 0.4375 3.07137e-05
0.09375 0.4375 5.18236e-05
0.109375 0.421875 0.000129682
0.125 0.421875 3.88367e-09
0.125 0.4375 0.00288797
0.109375 0.4375 3.07137e-05
0.109375 0.40625 2.58475e-05
0.125 0.40625 6.89608e-05
0.125 0.421875 3.88367e-09
0.109375 0.421875 0.000129682
0.09375 0.40625 0
0.109375 0.40625 2.58475e-05
0.109375 0.421875 0.000129682
0.09375 0.421875 5.50247e-06
0.09375 0.390625 0
0.109375 0.390625 8.68159e-07
0.109375 0.40625 2.58475e-05
0.09375 0.40625 0
0.109375 0.390625 8.68159e-07
0.125 0.390625 3.77619e-05
0.125 0.40625 6.89608e-05
0.109375 0.40625 2.58475e-05
0.109375 0.375 0
0.125 0.375 3.4298e-06
0.125 0.390625 3.77619e-05
0.109375 0.390625 8.68159e-07
0.09375 0.375 5.29396e-23
0.109375 0.375 -5.29396e-23
0.109375 0.390625 8.68159e-07
0.09375 0.390625 -5.29396e-23
0.0625 0.390625 0
0.078125 0.390625 0
0.078125 0.40625 0
0.0625 0.40625 0
0.078125 0.390625 0
0.09375 0.390625 0
0.09375 0.40625 0
0.078125 0.40625 0
0.078125 0.375 0
0.09375 0.375 0
0.09375 0.390625 0
0.078125 0.390625 0
0.0625 0.375 0
0.078125 0.375 0
0.078125 0.390625 0
0.0625 0.390625 0
0 0.421875 0
0.015625 0.421875 0
0.015625 0.4375 0
0 0.4375 0
0.015625 0.421875 0
0.03125 0.421875 0
0.03125 0.4375 0
0.015625 0.4375 0
0.015625 0.40625 0
0.03125 0.40625 0
0.03125 0.421875 0
0.015625 0.421875 0
0 0.40625 0
0.015625 0.40625 0
0.015625 0.421875 0
0 0.421875 0
0.03125 0.421875 0
0.046875 0.421875 0
0.046875 0.4375 0
0.03125 0.4375 0
0.046875 0.421875 0
0.0625 0.421875 0
0.0625 0.4375 0
0.046875 0.4375 0
0.046875 0.40625 0
0.0625 0.40625 0
0.0625 0.421875 0
0.046875 0.421875 0
0.03125 0.40625 0
0.046875 0.40625 0
0.046875 0.421875 0
0.03125 0.421875 0
0.03125 0.390625 0
0.046875 0.390625 0
0.046875 0.40625 0
0.03125 0.40625 0
0.046875 0.390625 0
0.0625 0.390625 0
0.0625 0.40625 0
0.046875 0.40625 0
0.046875 0.375 0
0.0625 0.375 0
0.0625 0.390625 0
0.046875 0.390625 0
0.03125 0.375 0
0.046875 0.375 0
0.046875 0.390625 0
0.03125 0.390625 0
0 0.390625 0
0.015625 0.390625 0
0.015625 0.40625 0
0 0.40625 0
0.015625 0.390625 0
0.03125 0.390625 0
0.03125 0.40625 0
0.015625 0.40625 0
0.015625 0.375 0
0.03125 0.375 0
0.03125 0.390625 0
0.015625 0.390625 0
0 0.375 0
0.015625 0.375 0
0.015625 0.390625 0
0 0.390625 0
0.125 0.484375 0.0294022
0.140625 0.484375 0.0800452
0.140625 0.5 0.0844265
0.125 0.5 0.0319695
0.140625 0.484375 0.0800452
0.15625 0.484375 0.148224
0.15625 0.5 0.154527
0.140625 0.5 0.0844265
0.140625 0.46875 0.0677078
0.15625 0.46875 0.130254
0.15625 0.484375 0.148224
0.140625 0.484375 0.0800452
0.125 0.46875 0.0220913
0.140625 0.46875 0.0677078
0.140625 0.484375 0.0800452
0.125 0.484375 0.0294022
0.15625 0.484375 0.148224
0.171875 0.484375 0.226696
0.171875 0.5 0.234872
0.15625 0.5 0.154527
0.171875 0.484375 0.226696
0.1875 0.484375 0.307041
0.1875 0.5 0.316941
0.171875 0.5 0.234872
0.171875 0.46875 0.203245
0.1875 0.46875 0.278536
0.1875 0.484375 0.307041
0.171875 0.484375 0.226696
0.15625 0.46875 0.130254
0.171875 0.46875 0.203245
0.171875 0.484375 0.226696
0.15625 0.484375 0.148224
0.15625 0.453125 0.103339
0.171875 0.453125 0.167618
0.171875 0.46875 0.203245
0.15625 0.46875 0.130254
0.164062 0.453125 0.135478
0.171875 0.460938 0.185432
0.164062 0.46875 0.166749
0.15625 0.460938 0.116796
0.164062 0.460938 0.151114
0.171875 0.453125 0.167618
0.1875 0.453125 0.234871
0.1875 0.46875 0.278536
0.171875 0.46875 0.203245
0.179688 0.453125 0.201244
0.1875 0.460938 0.256703
0.179688 0.46875 0.240891
0.171875 0.460938 0.185432
0.179688 0.460938 0.221067
0.171875 0.4375 0.124595
0.1875 0.4375 0.181356
0.1875 0.453125 0.234871
0.171875 0.453125 0.167618
0.179688 0.4375 0.152975
0.1875 0.445312 0.208113
0.179688 0.453125 0.201244
0.171875 0.445312 0.146106
0.179688 0.445312 0.17711
0.15625 0.4375 0.0716377
0.171875 0.4375 0.124595
0.171875 0.453125 0.167618
0.15625 0.453125 0.103339
0.164062 0.4375 0.0981162
0.171875 0.445312 0.146106
0.164062 0.453125 0.135478
0.15625 0.445312 0.0874882
0.164062 0.445312 0.116797
0.125 0.453125 0.0118362
0.140625 0.453125 0.0497072
0.140625 0.46875 0.0677078
0.125 0.46875 0.0220913
0.132812 0.453125 0.0307717
0.140625 0.460938 0.0587075
0.132812 0.46875 0.0448996
0.125 0.460938 0.0169638
0.132812 0.460938 0.0378356
0.140625 0.453125 0.0497072
0.15625 0.453125 0.103339
0.15625 0.46875 0.130254
0.140625 0.46875 0.0677078
0.148438 0.453125 0.076523
0.15625 0.460938 0.116796
0.148438 0.46875 0.0989807
0.140625 0.460938 0.0587075
0.148438 0.460938 0.0877519
0.140625 0.4375 0.0292232
0.15625 0.4375 0.0716377
0.15625 0.453125 0.103339
0.140625 0.453125 0.0497072
0.148438 0.4375 0.0504304
0.15625 0.445312 0.0874882
0.148438 0.453125 0.076523
0.140625 0.445312 0.0394652
0.148438 0.445312 0.0634767
0.125 0.4375 0.00288797
0.140625 0.4375 0.0292232
0.140625 0.453125 0.0497072
0.125 0.453125 0.0118362
0.132812 0.4375 0.0160556
0.140625 0.445312 0.0394652
0.132812 0.453125 0.0307717
0.125 0.445312 0.00736207
0.132812 0.445312 0.0234136
0.1875 0.484375 0.307041
0.203125 0.484375 0.380672
0.203125 0.5 0.392038
0.1875 0.5 0.316941
0.203125 0.484375 0.380672
0.21875 0.484375 0.439717
0.21875 0.5 0.452203
0.203125 0.5 0.392038
0.203125 0.46875 0.347863
0.21875 0.46875 0.403623
0.21875 0.484375 0.439717
0.203125 0.484375 0.380672
0.1875 0.46875 0.278536
0.203125 0.46875 0.347863
0.203125 0.484375 0.380672
0.1875 0.484375 0.307041
0.21875 0.484375 0.439717
0.234375 0.484375 0.47861
0.234375 0.5 0.49255
0.21875 0.5 0.452203
0.234375 0.484375 0.47861
0.25 0.484375 0.49255
0.25 0.5 0.49556
0.234375 0.5 0.49255
0.242188 0.484375 0.48558
0.25 0.492188 0.494055
0.242188 0.5 0.494055
0.234375 0.492188 0.48558
0.242188 0.492188 0.489818
0.234375 0.46875 0.439717
0.25 0.46875 0.452203
0.25 0.484375 0.49255
0.234375 0.484375 0.47861
0.21875 0.46875 0.403623
0.234375 0.46875 0.439717
0.234375 0.484375 0.47861
0.21875 0.484375 0.439717
0.21875 0.453125 0.347863
0.234375 0.453125 0.380672
0.234375 0.46875 0.439717
0.21875 0.46875 0.403623
0.234375 0.453125 0.380672
0.25 0.453125 0.392038
0.25 0.46875 0.452203
0.234375 0.46875 0.439717
0.234375 0.4375 0.307041
0.25 0.4375 0.316941
0.25 0.453125 0.392038
0.234375 0.453125 0.380672
0.21875 0.4375 0.278536
0.234375 0.4375 0.307041
0.234375 0.453125 0.380672
0.21875 0.453125 0.347863
0.1875 0.453125 0.234871
0.203125 0.453125 0.297343
0.203125 0.46875 0.347863
0.1875 0.46875 0.278536
0.195312 0.453125 0.266107
0.203125 0.460938 0.322603
[...]
POINT_DATA 37664
SCALARS "u" float 1
LOOKUP_TABLE default
0
0
0
0
0
0
0
0
0
0
0
0
0
0
0
0
0
0
0
0
0
0
0
0
0
0
0
0
0
0
0
0
0
0
0
0
0
0
0
0
0
0
0
0
0
0
0
0
0
0
0
0
0
0
0
0
0
0
0
0
0
0
0
0
1.69407e-21
1.49886e-05
2.07578e-05
-1.69407e-21
1.49886e-05
2.9222e-06
1.01644e-20
2.07578e-05
3.38725e-06
2.44836e-05
2.9222e-06
1.49886e-05
-8.47033e-22
3.38725e-06
1.49886e-05
8.47033e-22
2.9222e-06
0.00171396
0.00237062
4.33681e-19
0.00171396
0.0294022
0.0319695
0.00237062
0.000170594
0.0220913
0.0294022
0.00171396
2.44836e-05
0.000170594
0.00171396
2.9222e-06
0.000108204
8.41864e-10
0.000170594
2.44836e-05
8.41864e-10
0.0118362
0.0220913
0.000170594
0.00591808
0.0169638
0.011131
8.52975e-05
0.00852453
3.07137e-05
0.00288797
0.0118362
8.41864e-10
0.00145934
0.00736207
0.00591808
1.53573e-05
0.00368871
5.18236e-05
3.07137e-05
8.41864e-10
0.000108204
2.11758e-22
-2.11758e-22
3.38725e-06
-2.11758e-22
6.77626e-21
0.000108204
2.44836e-05
3.38725e-06
0
5.18236e-05
0.000108204
0
0
0
0
0
0
0
0
0
0
5.50247e-06
5.18236e-05
0
4.23516e-22
-4.23516e-22
5.50247e-06
-4.23516e-22
0
0
0
0
5.50247e-06
0.000129682
3.07137e-05
5.18236e-05
0.000129682
3.88367e-09
0.00288797
3.07137e-05
2.58475e-05
6.89608e-05
3.88367e-09
0.000129682
0
2.58475e-05
0.000129682
5.50247e-06
0
8.68159e-07
2.58475e-05
0
8.68159e-07
3.77619e-05
6.89608e-05
2.58475e-05
0
3.4298e-06
3.77619e-05
8.68159e-07
5.29396e-23
-5.29396e-23
8.68159e-07
-5.29396e-23
0
0
0
0
0
0
0
0
0
0
0
0
0
0
0
0
0
0
0
0
0
0
0
0
0
0
0
0
0
0
0
0
0
0
0
0
0
0
0
0
0
0
0
0
0
0
0
0
0
0
0
0
0
0
0
0
0
0
0
0
0
0
0
0
0
0
0
0
0
0
0
0
0
0
0
0
0
0
0
0
0.0294022
0.0800452
0.0844265
0.0319695
0.0800452
0.148224
0.154527
0.0844265
0.0677078
0.130254
0.148224
0.0800452
0.0220913
0.0677078
0.0800452
0.0294022
0.148224
0.226696
0.234872
0.154527
0.226696
0.307041
0.316941
0.234872
0.203245
0.278536
0.307041
0.226696
0.130254
0.203245
0.226696
0.148224
0.103339
0.167618
0.203245
0.130254
0.135478
0.185432
0.166749
0.116796
0.151114
0.167618
0.234871
0.278536
0.203245
0.201244
0.256703
0.240891
0.185432
0.221067
0.124595
0.181356
0.234871
0.167618
0.152975
0.208113
0.201244
0.146106
0.17711
0.0716377
0.124595
0.167618
0.103339
0.0981162
0.146106
0.135478
0.0874882
0.116797
0.0118362
0.0497072
0.0677078
0.0220913
0.0307717
0.0587075
0.0448996
0.0169638
0.0378356
0.0497072
0.103339
0.130254
0.0677078
0.076523
0.116796
0.0989807
0.0587075
0.0877519
0.0292232
0.0716377
0.103339
0.0497072
0.0504304
0.0874882
0.076523
0.0394652
0.0634767
0.00288797
0.0292232
0.0497072
0.0118362
0.0160556
0.0394652
0.0307717
0.00736207
0.0234136
0.307041
0.380672
0.392038
0.316941
0.380672
0.439717
0.452203
0.392038
0.347863
0.403623
0.439717
0.380672
0.278536
0.347863
0.380672
0.307041
0.439717
0.47861
0.49255
0.452203
0.47861
0.49255
0.49556
0.49255
0.48558
0.494055
0.494055
0.48558
0.489818
0.439717
0.452203
0.49255
0.47861
0.403623
0.439717
0.47861
0.439717
0.347863
0.380672
0.439717
0.403623
0.380672
0.392038
0.452203
0.439717
0.307041
0.316941
0.392038
0.380672
0.278536
0.307041
0.380672
0.347863
0.234871
0.297343
0.347863
0.278536
0.266107
0.322603
0.3132
0.256703
0.289653
0.297343
0.347863
0.403623
0.347863
0.234871
0.278536
0.347863
0.297343
0.256703
0.3132
0.322603
0.266107
0.289653
0.181356
0.234871
0.297343
0.234871
0.208113
0.266107
0.266107
0.208113
0.23711
0.124595
0.167618
0.234871
0.181356
0.146106
0.201244
0.208113
0.152975
0.17711
0.167618
0.203245
0.278536
0.234871
0.185432
0.240891
0.256703
0.201244
0.221067
0.103339
0.130254
0.203245
0.167618
0.116796
0.166749
0.185432
0.135478
0.151114
0.0716377
0.103339
0.167618
0.124595
0.0874882
0.135478
0.146106
0.0981162
0.116797
0.203245
0.226696
0.307041
0.278536
0.226696
0.234872
0.316941
0.307041
0.148224
0.154527
0.234872
0.226696
0.130254
0.148224
0.226696
0.203245
0.0677078
0.0800452
0.148224
0.130254
0.0800452
0.0844265
0.154527
0.148224
0.0294022
0.0319694
0.0844265
0.0800452
0.0220913
0.0294022
0.0800452
0.0677078
0.0292232
0.0497072
0.103339
0.0716377
0.0394652
0.076523
0.0874882
0.0504304
0.0634767
0.0497072
0.0677078
0.130254
0.103339
0.0587075
0.0989807
0.116796
0.076523
0.0877519
0.0118362
0.0220913
0.0677078
0.0497072
0.0169638
0.0448996
0.0587075
0.0307717
0.0378356
0.00288797
0.0118362
0.0497072
0.0292232
0.00736207
0.0307717
0.0394652
0.0160556
0.0234136
3.88367e-09
0.01041
0.0292232
0.00288797
0.00520501
0.0198166
0.0160556
0.00144399
0.0106303
0.01041
0.040345
0.0716377
0.0292232
0.0253775
0.0559914
0.0504304
0.0198166
0.037904
3.14774e-05
0.0142045
0.040345
0.01041
0.00711797
0.0272748
0.0253775
0.00522074
0.0162477
6.89608e-05
3.14774e-05
0.01041
3.88367e-09
5.02191e-05
0.00522074
0.00520501
3.44824e-05
0.00262761
0.040345
0.0799942
0.124595
0.0716377
0.0601696
0.102294
0.0981162
0.0559914
0.0791429
0.0799942
0.124595
0.181356
0.124595
0.102294
0.152975
0.152975
0.102294
0.127635
0.040345
0.0716377
0.124595
0.0799942
0.0559914
0.0981162
0.102294
0.0601696
0.0791429
0.0142045
0.040345
0.0799942
0.040345
0.0272748
0.0601696
0.0601696
0.0272748
0.0437222
3.14774e-05
0.01041
0.040345
0.0142045
0.00522074
0.0253775
0.0272748
0.00711797
0.0162477
0.01041
0.0292232
0.0716377
0.040345
0.0198166
0.0504304
0.0559914
0.0253775
0.037904
3.88367e-09
0.00288797
0.0292232
0.01041
0.00144399
0.0160556
0.0198166
0.00520501
0.0106303
6.89608e-05
3.88367e-09
0.01041
3.14774e-05
3.44824e-05
0.00520501
0.00522074
5.02191e-05
0.00262761
3.77619e-05
-5.75982e-20
3.14774e-05
6.89608e-05
0
3.14774e-05
0.0142045
3.14774e-05
1.57387e-05
0.00711797
0.00711797
1.57387e-05
0.00356686
3.77619e-05
6.89608e-05
3.14774e-05
-6.09864e-20
3.4298e-06
3.77619e-05
-5.42101e-20
3.77619e-05
3.38813e-21
8.68159e-07
3.77619e-05
3.4298e-06
8.68159e-07
2.58475e-05
6.89608e-05
3.77619e-05
0
0
2.58475e-05
8.68159e-07
5.29396e-23
-5.29396e-23
8.68159e-07
-5.29396e-23
2.58475e-05
0.000129682
3.88367e-09
6.89608e-05
0.000129682
3.07138e-05
0.00288797
3.88367e-09
5.50247e-06
5.18236e-05
3.07138e-05
0.000129682
0
5.50247e-06
0.000129682
2.58475e-05
-4.23516e-22
4.23516e-22
5.50247e-06
4.23516e-22
3.38813e-21
-3.38813e-21
5.18236e-05
5.50247e-06
0
0
0
0
0
0
0
0
0
0
0
0
0
0
0
0
0
0
0
0
0
0
0
0
3.07138e-05
8.41864e-10
0.0118362
0.00288797
1.53573e-05
0.00591808
0.00736207
0.00145934
0.00368871
8.41864e-10
0.000170599
0.0220913
0.0118362
8.52998e-05
0.011131
0.0169638
0.00591808
0.00852453
0.000108204
2.4482e-05
0.000170599
8.41864e-10
5.18236e-05
0.000108204
8.41864e-10
3.07138e-05
0.000170599
0.00171393
0.0294022
0.0220913
0.00171393
0.00237069
0.0319694
0.0294022
2.92832e-06
0
0.00237069
0.00171393
2.4482e-05
2.92832e-06
0.00171393
0.000170599
3.38791e-06
1.49857e-05
2.92832e-06
2.4482e-05
1.49857e-05
2.07661e-05
1.35525e-20
2.92832e-06
0
0
2.07661e-05
1.49857e-05
0
0
1.49857e-05
3.38791e-06
0
0
0.000108204
5.18236e-05
-6.77626e-21
3.38791e-06
2.4482e-05
0.000108204
2.11758e-22
-2.11758e-22
3.38791e-06
-2.11758e-22
0
0
0
0
0
0
0
0
0
0
0
0
0
0
0
0
0
0
0
0
0
0
0
0
0
0
0
0
0
0
0
0
0
0
0
0
0
0
0
0
0
0
0
0
0
0
0
0
0
0
0
0
0
0
0
0
0
0
0
0
0
0
0
0
0
0
0
0
0
0
0
0
0
0
0
0
0
0
0
0
0
0
0
0
0
0
0
0
0
0
0
0
0
0
0
0
0
0
0
0
0
0
0
0
0
0
0
0
0
0
0
0
0
0
0
0
0
0
0
0
0
0
0
0
0
0
0
0
0
0
0
0
0
0
0
0
0
0
0
0
0
0
0
0
0
0
0
0
0
0
0
0
0
0
0
0
0
0
0
0
0
0
0
0
0
0
0
0
0
0
0
0
0
0
0
0
0
0
0
0
0
0
0
0
0
0
0
0
0
0
0
0
0
0
0
0
0
0
0
0
0
0
0
0
0
0
0
0
0
0
0
0
0
0
0
0
-2.11758e-22
2.11758e-22
3.4298e-06
2.11758e-22
0
0
0
0
0
0
0
0
0
0
0
0
0
0
0
0
0
0
0
0
0
0
0
0
0
0
0
0
0
0
0
0
0
0
0
0
0
0
0
0
0
0
0
0
0
0
0
0
0
0
0
0
0
0
0
0
0
0
0
0
0
0
0
0
0
0
0
0
0
0
0
0
0
0
0
0
0
0
0
0
0
0
0
0
0
0
0
0
0
0
0
0
0
0
0
0
0
0
0
0
0
0
0
0
0
0
0
0
0
0
0
0
0
0
0
0
0
0
0
0
0
0
0
0
0
0
0
0
0
0
0
0
0
0
0
0
0
0
0
0
0
0
0
0
0
0
0
0
0
0
0
0
0
0
0
0
0
0
0
0
0
0
0
0
0
0
0
0
0.49255
0.47861
0.49255
0.49556
0.48558
0.48558
0.494055
0.494055
0.489818
0.47861
0.439717
0.452203
0.49255
0.439717
0.403623
0.439717
0.47861
0.452203
0.439717
0.47861
0.49255
0.439717
0.380672
0.392038
0.452203
0.380672
0.307041
0.316941
0.392038
0.347863
0.278536
0.307041
0.380672
0.403623
0.347863
0.380672
0.439717
0.347863
0.297343
0.347863
0.403623
0.297343
0.234871
0.278536
0.347863
0.266107
0.256703
0.3132
0.322603
0.289653
0.234871
0.181356
0.234871
0.297343
0.208113
0.208113
0.266107
0.266107
0.23711
0.278536
0.234871
0.297343
0.347863
0.256703
0.266107
0.322603
0.3132
0.289653
0.392038
0.380672
0.439717
0.452203
0.380672
0.347863
0.403623
0.439717
0.307041
0.278536
0.347863
0.380672
0.316941
0.307041
0.380672
0.392038
0.307041
0.226696
0.234872
0.316941
0.226696
0.148224
0.154527
0.234872
0.203245
0.130254
0.148224
0.226696
0.278536
0.203245
0.226696
0.307041
0.148224
0.0800452
0.0844265
0.154527
0.0800452
0.0294022
0.0319696
0.0844265
0.0677079
0.0220904
0.0294022
0.0800452
0.130254
0.0677079
0.0800452
0.148224
0.103339
0.0497069
0.0677079
0.130254
0.0765229
0.0587074
0.0989808
0.116796
0.0877518
0.0497069
0.0118375
0.0220904
0.0677079
0.0307722
0.0169639
0.0448991
0.0587074
0.0378357
0.0292278
0.00288663
0.0118375
0.0497069
0.0160572
0.00736206
0.0307722
0.0394674
0.0234147
0.0716373
0.0292278
0.0497069
0.103339
0.0504326
0.0394674
0.0765229
0.0874881
0.0634777
0.234871
0.167618
0.203245
0.278536
0.201244
0.185432
0.240891
0.256703
0.221067
0.167618
0.103339
0.130254
0.203245
0.135478
0.116796
0.166749
0.185432
0.151114
0.124595
0.0716373
0.103339
0.167618
0.0981161
0.0874881
0.135478
0.146107
0.116797
0.181356
0.124595
0.167618
0.234871
0.152975
0.146107
0.201244
0.208113
0.17711
0.124595
0.0799938
0.124595
0.181356
0.102294
0.102294
0.152975
0.152975
0.127635
0.0799938
0.0403462
0.0716373
0.124595
0.06017
0.0559917
0.0981161
0.102294
0.0791431
0.0403462
0.014174
0.0403462
0.0799938
0.0272601
0.0272601
0.06017
0.06017
0.043715
0.0716373
0.0403462
0.0799938
0.124595
0.0559917
0.06017
0.102294
0.0981161
0.0791431
0.0403462
0.0103881
0.0292278
0.0716373
0.0253671
0.019808
0.0504326
0.0559917
0.0378999
0.0103881
3.88367e-09
0.00288663
0.0292278
0.00519405
0.00144332
0.0160572
0.019808
0.0106256
3.69016e-05
6.3119e-05
3.88367e-09
0.0103881
5.00103e-05
3.15614e-05
0.00519405
0.0052125
0.00262203
0.014174
3.69016e-05
0.0103881
0.0403462
0.00710547
0.0052125
0.0253671
0.0272601
0.0162363
3.69016e-05
0
3.69016e-05
0.014174
1.84508e-05
1.84508e-05
0.00710547
0.00710547
0.00356196
4.06576e-20
6.457e-05
6.3119e-05
3.69016e-05
6.45701e-05
9.10897e-05
6.457e-05
4.06576e-20
6.31189e-05
6.45701e-05
4.06576e-20
3.69016e-05
0.0292278
0.0103881
0.0403462
0.0716373
0.019808
0.0253671
0.0559917
0.0504326
0.0378999
0.0103881
3.69016e-05
0.014174
0.0403462
0.0052125
0.00710547
0.0272601
0.0253671
0.0162363
3.88367e-09
6.31189e-05
3.69016e-05
0.0103881
3.15614e-05
5.00103e-05
0.0052125
0.00519405
0.00262203
0.00288663
3.88367e-09
0.0103881
0.0292278
0.00144332
0.00519405
0.019808
0.0160572
0.0106256
0.234872
0.226696
0.307041
0.316941
0.226696
0.203245
0.278536
0.307041
0.148224
0.130254
0.203245
0.226696
0.154527
0.148224
0.226696
0.234872
0.203245
0.167618
0.234871
0.278536
0.185432
0.201244
0.256703
0.240891
0.221067
0.167618
0.124595
0.181356
0.234871
0.146107
0.152975
0.208113
0.201244
0.17711
0.103339
0.0716373
0.124595
0.167618
0.0874881
0.0981161
0.146107
0.135478
0.116797
0.130254
0.103339
0.167618
0.203245
0.116796
0.135478
0.185432
0.166749
0.151114
0.0677079
0.0497069
0.103339
0.130254
0.0587074
0.0765229
0.116796
0.0989808
0.0877518
0.0497069
0.0292278
0.0716373
0.103339
0.0394674
0.0504326
0.0874881
0.0765229
0.0634777
0.0118375
0.00288663
0.0292278
0.0497069
0.00736206
0.0160572
0.0394674
0.0307722
0.0234147
0.0220904
0.0118375
0.0497069
0.0677079
0.0169639
0.0307722
0.0587074
0.0448991
0.0378357
0.0844265
0.0800452
0.148224
0.154527
0.0800452
0.0677079
0.130254
0.148224
0.0294022
0.0220904
0.0677079
0.0800452
0.0319694
0.0294022
0.0800452
0.0844265
0.0294022
0.00171337
0.00237094
0.0319696
0.00171337
3.08231e-06
0
0.00237094
0.000170802
2.43541e-05
3.08231e-06
0.00171337
0.0220904
0.000170802
0.00171337
0.0294022
3.08231e-06
1.47427e-05
2.15079e-05
1.18585e-20
1.47427e-05
0
0
2.15079e-05
3.58598e-06
0
0
1.47427e-05
2.43541e-05
3.58598e-06
1.47427e-05
3.08231e-06
0.000109804
6.77626e-21
3.58598e-06
2.43541e-05
0
0
0
3.58598e-06
0
0
0
0
4.92035e-05
0
0
0.000109804
0.0118375
8.41864e-10
0.000170802
0.0220904
0.00591874
8.54015e-05
0.0111306
0.0169639
0.00852466
8.41864e-10
0.000109804
2.43541e-05
0.000170802
3.20395e-05
4.92035e-05
0.000109804
8.41864e-10
0.00288663
3.20395e-05
8.41864e-10
0.0118375
0.00145934
1.60202e-05
0.00591874
0.00736206
0.00368904
0
0
0
0
0
0
0
0
0
0
0
0
0
0
0
0
0
0
0
0
0
0
0
0
0
0
0
0
0
0
0
0
0
0
0
0
0
0
0
0
0
0
0
0
0
0
0
0
0
0
0
0
0
0
0
0
0
0
0
0
0
0
0
0
1.28831e-06
3.78944e-05
0
0
3.78944e-05
0.000204002
0
0
0.000167381
4.40997e-05
0.000204002
3.78944e-05
0.000612071
0.000167381
3.78944e-05
1.28831e-06
0.000204002
0.000418067
0
0
0.000418067
0.000507941
0
-5.42101e-20
6.63576e-06
5.42101e-20
0.000507941
0.000418067
4.40997e-05
6.63576e-06
0.000418067
0.000204002
0.0261475
0.0425645
6.63576e-06
4.40997e-05
0.034356
0.0212856
2.53677e-05
0.0130958
0.0171907
0.0425645
0.048651
0
6.63576e-06
0.1633
0.169593
0.048651
0.0425645
0.14447
0.1633
0.0425645
0.0261475
1.0842e-19
0.00399809
0.000167381
0.000612071
0.00399809
0.0261475
4.40997e-05
0.000167381
0.0150728
0.0130958
0.00010574
0.00208273
0.00758927
0.110777
0.14447
0.0261475
0.00399809
0.127623
0.0853086
0.0150728
0.0573875
0.0713481
0.0587866
0.110777
0.00399809
6.93889e-18
0.0847818
0.0573875
0.00199904
0.0293933
0.0433904
0.0717842
0.0640861
0.0363919
0.04409
0.054088
0.0840822
0.050389
0.00299857
0.000999522
3.88367e-09
0.00012169
3.20395e-05
0.00288663
0.00012169
7.00669e-06
4.92035e-05
3.20395e-05
4.08932e-05
7.91961e-06
7.00669e-06
0.00012169
6.3119e-05
4.08932e-05
0.00012169
3.88367e-09
7.00669e-06
0
0
4.92035e-05
0
1.28831e-06
0
0
0.00017401
0.000612071
1.28831e-06
2.71051e-20
7.91961e-06
0.00017401
0
7.00669e-06
0.000440239
0.00037327
0.00017401
7.91961e-06
0.00037327
1.6263e-19
0.000612071
0.00017401
0.00500769
0.0587866
0
0.00037327
0.0318972
0.0293933
0.000186635
0.00269048
0.0160419
0.0184524
0.0239695
0.00936619
0.00384908
0.0139093
0.0453419
0.0227176
0.0386195
0.0193798
0.0520643
0.0260555
9.33175e-05
0.000139976
4.66587e-05
0.00811427
0.000279952
0.00153187
0.00482307
1.43713e-05
0.00500769
0.00037327
0.000440239
6.457e-05
6.2711e-05
4.08932e-05
6.3119e-05
6.2711e-05
0.000440239
7.91961e-06
4.08932e-05
0.000891664
1.43713e-05
0.000440239
6.2711e-05
9.10897e-05
0.000891664
6.2711e-05
6.457e-05
0.000891664
9.75782e-19
0.000891664
9.10897e-05
8.67362e-19
0.0229114
1.43713e-05
0.000891664
0.0114557
0.0114629
0.000453018
0.000445832
0.00595435
0.0229114
0.119372
0.0229114
-3.46945e-18
0.0711417
0.0711417
0.0114557
0.0114557
0.0412987
0.0470266
0.0263772
0.034969
0.0367019
0.0189164
0.0171835
0.0269427
0.0590841
0.0562202
0.033838
0.0464611
0.0952569
0.0952569
0.0562202
0.0757386
0.0171835
0.0487595
0.0143196
0.063681
0.0200474
0.0263772
0.00572784
0.00572784
0.0160525
1.43713e-05
0.0229114
0
0.000891664
0.0114629
0.0114557
0.000445832
0.000453018
0.00595435
0.0229114
0.106253
0.00500769
1.43713e-05
0.0645822
0.0556304
0.00251103
0.0114629
0.0335466
0.0437468
0.0490644
0.0225047
0.0171871
0.0331258
0.0854176
0.0809417
0.0445885
0.0650031
0.00375936
0.0390676
0.0241739
0.00313519
0.0180288
0.0211014
0.0501094
0.00438352
0.0012627
0.00573862
0.0118837
0.106253
0.162145
0.0587866
0.00500769
0.186158
0.249921
0.162145
0.106253
0.21804
0.206033
0.134199
0.146206
0.176119
0.119372
0.186158
0.106253
0.0229114
0.152765
0.146206
0.0645822
0.0711417
0.108674
0.186158
0.265073
0.186158
0.119372
0.225616
0.225616
0.152765
0.152765
0.18919
0.265073
0.334385
0.249921
0.186158
0.334385
0.412237
0.334385
0.265073
0.373311
0.373311
0.299729
0.299729
0.33652
0.249921
0.334385
0.265073
0.186158
0.00500769
0.106253
0.0229114
1.43713e-05
0.0556304
0.0645822
0.0114629
0.00251103
0.0335466
0.030319
0.0445885
0.0180288
0.00375936
0.0241739
0.0809417
0.0854176
0.0490644
0.0650031
0.0437468
0.0171871
0.0225047
0.0331258
0.00573862
0.0012627
0.0118837
0.106253
0.186158
0.119372
0.0229114
0.146206
0.152765
0.0711417
0.0645822
0.108674
0.162145
0.249921
0.186158
0.106253
0.206033
0.21804
0.146206
0.134199
0.176119
0.0587866
0.162145
0.106253
0.00500769
0.162145
0.207426
0.110777
0.0587866
0.184785
0.159101
0.0847818
0.110466
0.134784
0.207426
0.242189
0.14447
0.110777
0.3026
0.342748
0.242189
0.207426
0.249921
0.3026
0.207426
0.162145
0.276261
0.255013
0.184785
0.206033
0.230523
0.242189
0.264114
0.1633
0.14447
0.264114
0.271576
0.169593
0.1633
0.367945
0.376576
0.271576
0.264114
0.342748
0.367945
0.264114
0.242189
0.440604
0.470518
0.367945
0.342748
0.470518
0.480868
0.376576
0.367945
0.572598
0.585478
0.480868
0.470518
0.536105
0.572598
0.470518
0.440604
0.554352
0.521558
0.455561
0.488355
0.504956
0.334385
0.39408
0.3026
0.249921
0.364232
0.34834
0.276261
0.292153
0.320247
0.39408
0.440604
0.342748
0.3026
0.480916
0.536105
0.440604
0.39408
0.50851
0.488355
0.417342
0.437498
0.462926
0.412237
0.480916
0.39408
0.334385
0.446577
0.437498
0.364232
0.373311
0.405405
0.480916
0.560102
0.480916
0.412237
0.520509
0.520509
0.446577
0.446577
0.483543
0.560102
0.626816
0.536105
0.480916
0.593459
0.58146
0.50851
0.520509
0.550985
0.626816
0.70848
0.626816
0.560102
0.667648
0.667648
0.593459
0.593459
0.630554
0.536105
0.626816
0.560102
0.480916
0.58146
0.593459
0.520509
0.50851
0.550985
0.626816
0.673403
0.572598
0.536105
0.650109
0.623
0.554352
0.58146
0.60223
0.673403
0.690451
0.585478
0.572598
0.770672
0.795546
0.690451
0.673403
0.783109
0.742998
0.681927
0.722037
0.732518
0.70848
0.770672
0.673403
0.626816
0.739576
0.722037
0.650109
0.667648
0.694843
0.770672
0.864437
0.770672
0.70848
0.817554
0.817554
0.739576
0.739576
0.778565
0.794113
0.759071
0.840996
0.79806
0.755124
0.724028
0.864437
0.915995
0.795546
0.770672
0.890216
0.85577
0.783109
0.817554
0.836662
0.877326
0.863439
0.827108
0.840996
0.852217
0.885883
0.846216
0.825658
0.789327
0.809886
0.817772
0.794113
0.915995
0.945687
0.915995
0.864437
0.930841
0.930841
0.890216
0.890216
0.910528
0.795546
0.915995
0.864437
0.770672
0.85577
0.890216
0.817554
0.783109
0.836662
0.825658
0.846216
0.809886
0.789327
0.817772
0.885883
0.903105
0.863439
0.874661
0.877326
0.840996
0.827108
0.852217
0.794113
0.77689
0.801999
0.572598
0.673403
0.626816
0.536105
0.623
0.650109
0.58146
0.554352
0.60223
0.673403
0.770672
0.70848
0.626816
0.722037
0.739576
0.667648
0.650109
0.694843
0.690451
0.795546
0.770672
0.673403
0.742998
0.783109
0.722037
0.681927
0.732518
0.585478
0.690451
0.673403
0.572598
0.110777
0.207426
0.162145
0.0587866
0.159101
0.184785
0.110466
0.0847818
0.134784
0.207426
0.3026
0.249921
0.162145
0.255013
0.276261
0.206033
0.184785
0.230523
0.242189
0.342748
0.3026
0.207426
0.14447
0.242189
0.207426
0.110777
0.3026
0.39408
0.334385
0.249921
0.34834
0.364232
0.292153
0.276261
0.320247
0.39408
0.480916
0.412237
0.334385
0.437498
0.446577
0.373311
0.364232
0.405405
0.440604
0.536105
0.480916
0.39408
0.488355
0.50851
0.437498
0.417342
0.462926
0.342748
0.440604
0.39408
0.3026
0.367945
0.470518
0.440604
0.342748
0.470518
0.572598
0.536105
0.440604
0.521558
0.554352
0.488355
0.455561
0.504956
0.480868
0.585478
0.572598
0.470518
0.376576
0.480868
0.470518
0.367945
0.1633
0.264114
0.242189
0.14447
0.264114
0.367945
0.342748
0.242189
0.271576
0.376576
0.367945
0.264114
0.169593
0.271576
0.264114
0.1633
0.00237069
0.00171349
0.0294022
0.0319694
0.00171349
0.000170792
0.0220904
0.0294022
2.94803e-06
2.43902e-05
0.000170792
0.00171349
0
2.94803e-06
0.00171349
0.00237069
0.000170792
8.41864e-10
0.0118375
0.0220904
8.53964e-05
0.00591874
0.0169639
0.0111306
0.00852466
8.41864e-10
3.20391e-05
0.00288663
0.0118375
1.602e-05
0.00145934
0.00736206
0.00591874
0.00368904
0.000109791
4.9205e-05
3.20391e-05
8.41864e-10
2.43902e-05
0.000109791
8.41864e-10
0.000170792
3.53859e-06
6.77626e-21
0.000109791
2.43902e-05
0
0
4.9205e-05
0.000109791
0
0
0
0
0
0
0
3.53859e-06
2.07661e-05
1.49534e-05
2.94803e-06
1.01644e-20
1.49534e-05
3.53859e-06
2.43902e-05
2.94803e-06
0
0
3.53859e-06
1.49534e-05
0
0
1.49534e-05
2.07661e-05