# vtk DataFile Version 2.0

ASCII

DATASET UNSTRUCTURED_GRID
POINTS 18316 float
-0.5 -0.03125 1.0901
-0.46875 -0.03125 1.39517
-0.46875 0 1.41535
-0.5 0 1.12623
-0.484375 -0.03125 1.24758
-0.46875 -0.015625 1.4053
-0.484375 0 1.27567
-0.5 -0.015625 1.10818
-0.484375 -0.015625 1.26165
-0.492188 -0.03125 1.17021
-0.492188 -0.015625 1.18627
-0.476562 -0.03125 1.32249
-0.476562 -0.015625 1.33458
-0.476562 0 1.34661
-0.492188 0 1.20229
-0.46875 -0.03125 1.39517
-0.4375 -0.03125 2.30842
-0.4375 0 2.32596
-0.46875 0 1.41535
-0.453125 -0.03125 1.87096
-0.4375 -0.015625 2.31752
-0.453125 0 1.88978
-0.46875 -0.015625 1.4053
-0.453125 -0.015625 1.88052
-0.460938 -0.03125 1.63888
-0.460938 -0.015625 1.6487
-0.464844 -0.03125 1.51864
-0.464844 -0.015625 1.5286
-0.457031 -0.03125 1.75622
-0.457031 -0.015625 1.76591
-0.445312 -0.03125 2.09358
-0.445312 -0.015625 2.10291
-0.445312 0 2.11177
-0.460938 0 1.65835
-0.464844 0 1.53845
-0.457031 0 1.77536
-0.46875 -0.0625 1.32805
-0.4375 -0.0625 2.24267
-0.4375 -0.03125 2.30842
-0.46875 -0.03125 1.39517
-0.453125 -0.0625 1.80474
-0.4375 -0.046875 2.27594
-0.453125 -0.03125 1.87096
-0.46875 -0.046875 1.36175
-0.453125 -0.046875 1.83807
-0.460938 -0.0625 1.57233
-0.460938 -0.046875 1.60577
-0.464844 -0.0625 1.45185
-0.464844 -0.046875 1.48539
-0.457031 -0.0625 1.68986
-0.457031 -0.046875 1.72323
-0.445312 -0.0625 2.0276
-0.445312 -0.046875 2.06089
-0.445312 -0.03125 2.09358
-0.460938 -0.03125 1.63888
-0.464844 -0.03125 1.51864
-0.457031 -0.03125 1.75622
-0.5 -0.0625 1.05482
-0.46875 -0.0625 1.32805
-0.46875 -0.03125 1.39517
-0.5 -0.03125 1.0901
-0.484375 -0.0625 1.19506
-0.46875 -0.046875 1.36175
-0.484375 -0.03125 1.24758
-0.5 -0.046875 1.07246
-0.484375 -0.046875 1.22136
-0.492188 -0.0625 1.12594
-0.492188 -0.046875 1.14809
-0.476562 -0.0625 1.26237
-0.476562 -0.046875 1.29251
-0.476562 -0.03125 1.32249
-0.492188 -0.03125 1.17021
-0.4375 -0.03125 2.30842
-0.40625 -0.03125 2.58312
-0.40625 0 2.58373
-0.4375 0 2.32596
-0.421875 -0.03125 2.44782
-0.40625 -0.015625 2.58397
-0.421875 0 2.45676
-0.4375 -0.015625 2.31752
-0.421875 -0.015625 2.45272
-0.40625 -0.03125 2.58312
-0.375 -0.03125 2.62992
-0.375 0 2.61874
-0.40625 0 2.58373
-0.390625 -0.03125 2.60693
-0.375 -0.015625 2.62498
-0.390625 0 2.60159
-0.40625 -0.015625 2.58397
-0.390625 -0.015625 2.60486
-0.40625 -0.0625 2.55707
-0.375 -0.0625 2.6376
-0.375 -0.03125 2.62992
-0.40625 -0.03125 2.58312
-0.390625 -0.0625 2.5979
-0.375 -0.046875 2.63441
-0.390625 -0.03125 2.60693
-0.40625 -0.046875 2.57062
-0.390625 -0.046875 2.603
-0.4375 -0.0625 2.24267
-0.40625 -0.0625 2.55707
-0.40625 -0.03125 2.58312
-0.4375 -0.03125 2.30842
-0.421875 -0.0625 2.40232
-0.40625 -0.046875 2.57062
-0.421875 -0.03125 2.44782
-0.4375 -0.046875 2.27594
-0.421875 -0.046875 2.42552
-0.4375 -0.09375 2.11854
-0.40625 -0.09375 2.51426
-0.40625 -0.0625 2.55707
-0.4375 -0.0625 2.24267
-0.421875 -0.09375 2.31992
-0.40625 -0.078125 2.53613
-0.421875 -0.0625 2.40232
-0.4375 -0.078125 2.18115
-0.421875 -0.078125 2.36158
-0.429688 -0.09375 2.22015
-0.429688 -0.078125 2.27213
-0.414062 -0.09375 2.41793
-0.414062 -0.078125 2.44957
-0.414062 -0.0625 2.48029
-0.429688 -0.0625 2.32312
-0.40625 -0.09375 2.51426
-0.375 -0.09375 2.63835
-0.375 -0.0625 2.6376
-0.40625 -0.0625 2.55707
-0.390625 -0.09375 2.57711
-0.375 -0.078125 2.63852
-0.390625 -0.0625 2.5979
-0.40625 -0.078125 2.53613
-0.390625 -0.078125 2.588
-0.40625 -0.125 2.45626
-0.375 -0.125 2.64086
-0.375 -0.09375 2.63835
-0.40625 -0.09375 2.51426
-0.390625 -0.125 2.54973
-0.375 -0.109375 2.64019
-0.390625 -0.09375 2.57711
-0.40625 -0.109375 2.4857
-0.390625 -0.109375 2.56392
-0.382812 -0.125 2.59559
-0.375 -0.117188 2.64067
-0.382812 -0.109375 2.6023
-0.390625 -0.117188 2.55695
-0.382812 -0.117188 2.59908
-0.375 -0.101562 2.63942
-0.382812 -0.09375 2.60793
-0.390625 -0.101562 2.57064
-0.382812 -0.101562 2.60525
-0.4375 -0.125 1.90527
-0.40625 -0.125 2.45626
-0.40625 -0.09375 2.51426
-0.4375 -0.09375 2.11854
-0.421875 -0.125 2.18715
-0.40625 -0.109375 2.4857
-0.421875 -0.09375 2.31992
-0.4375 -0.109375 2.01299
-0.421875 -0.109375 2.25414
-0.429688 -0.125 2.04795
-0.429688 -0.109375 2.13484
-0.433594 -0.125 1.97707
-0.429688 -0.117188 2.0916
-0.433594 -0.109375 2.07425
-0.4375 -0.117188 1.95941
-0.433594 -0.117188 2.0259
-0.425781 -0.125 2.11797
-0.421875 -0.117188 2.2208
-0.425781 -0.109375 2.1948
-0.425781 -0.117188 2.15656
-0.414062 -0.125 2.32316
-0.414062 -0.109375 2.37104
-0.417969 -0.125 2.25554
-0.414062 -0.117188 2.34722
-0.417969 -0.109375 2.31288
-0.417969 -0.117188 2.28434
-0.410156 -0.125 2.39006
-0.40625 -0.117188 2.47109
-0.410156 -0.109375 2.42864
-0.410156 -0.117188 2.40947
-0.414062 -0.09375 2.41793
-0.414062 -0.101562 2.3946
-0.417969 -0.09375 2.36914
-0.421875 -0.101562 2.28717
-0.417969 -0.101562 2.34114
-0.40625 -0.101562 2.50009
-0.410156 -0.09375 2.4663
-0.410156 -0.101562 2.44759
-0.429688 -0.09375 2.22015
-0.429688 -0.101562 2.17769
-0.433594 -0.09375 2.16958
-0.4375 -0.101562 2.06602
-0.433594 -0.101562 2.12214
-0.425781 -0.09375 2.27026
-0.425781 -0.101562 2.2327
-0.5 -0.09375 1.02722
-0.46875 -0.09375 1.22292
-0.46875 -0.0625 1.32805
-0.5 -0.0625 1.05482
-0.484375 -0.09375 1.12684
-0.46875 -0.078125 1.27582
-0.484375 -0.0625 1.19506
-0.5 -0.078125 1.04102
-0.484375 -0.078125 1.16105
-0.492188 -0.09375 1.07751
-0.492188 -0.078125 1.10175
-0.476562 -0.09375 1.17529
-0.476562 -0.078125 1.21903
-0.476562 -0.0625 1.26237
-0.492188 -0.0625 1.12594
-0.46875 -0.09375 1.22292
-0.4375 -0.09375 2.11854
-0.4375 -0.0625 2.24267
-0.46875 -0.0625 1.32805
-0.453125 -0.09375 1.69001
-0.4375 -0.078125 2.18115
-0.453125 -0.0625 1.80474
-0.46875 -0.078125 1.27582
-0.453125 -0.078125 1.74776
-0.460938 -0.09375 1.46245
-0.460938 -0.078125 1.51774
-0.464844 -0.09375 1.34437
-0.464844 -0.078125 1.39844
-0.457031 -0.09375 1.57755
-0.457031 -0.078125 1.63407
-0.445312 -0.09375 1.90809
-0.445312 -0.078125 1.9683
-0.445312 -0.0625 2.0276
-0.460938 -0.0625 1.57233
-0.464844 -0.0625 1.45185
-0.457031 -0.0625 1.68986
-0.46875 -0.125 1.1079
-0.4375 -0.125 1.90527
-0.4375 -0.09375 2.11854
-0.46875 -0.09375 1.22292
-0.453125 -0.125 1.52311
-0.4375 -0.109375 2.01299
-0.453125 -0.09375 1.69001
-0.46875 -0.109375 1.16584
-0.453125 -0.109375 1.60728
-0.460938 -0.125 1.32064
-0.460938 -0.109375 1.39211
-0.464844 -0.125 1.21572
-0.464844 -0.109375 1.28054
-0.457031 -0.125 1.423
-0.457031 -0.109375 1.50092
-0.445312 -0.125 1.71745
-0.445312 -0.109375 1.81367
-0.449219 -0.125 1.62118
-0.445312 -0.117188 1.7658
-0.449219 -0.109375 1.71146
-0.453125 -0.117188 1.56538
-0.449219 -0.117188 1.66653
-0.441406 -0.125 1.8121
-0.4375 -0.117188 1.95941
-0.441406 -0.109375 1.91413
-0.441406 -0.117188 1.86337
-0.445312 -0.09375 1.90809
-0.449219 -0.09375 1.80011
-0.4375 -0.101562 2.06602
-0.441406 -0.09375 2.01417
-0.445312 -0.101562 1.8611
-0.441406 -0.101562 1.96439
-0.460938 -0.09375 1.46245
-0.464844 -0.09375 1.34437
-0.457031 -0.09375 1.57755
-0.5 -0.125 1.01078
-0.46875 -0.125 1.1079
-0.46875 -0.09375 1.22292
-0.5 -0.09375 1.02722
-0.484375 -0.125 1.05979
-0.46875 -0.109375 1.16584
-0.484375 -0.09375 1.12684
-0.5 -0.109375 1.019
-0.484375 -0.109375 1.09343
-0.492188 -0.125 1.0354
-0.492188 -0.109375 1.05649
-0.476562 -0.125 1.08395
-0.46875 -0.117188 1.13698
-0.476562 -0.109375 1.12987
-0.484375 -0.117188 1.07664
-0.476562 -0.117188 1.10698
-0.46875 -0.101562 1.19448
-0.476562 -0.09375 1.17529
-0.484375 -0.101562 1.11017
-0.476562 -0.101562 1.15264
-0.492188 -0.09375 1.07751
-0.375 -0.03125 2.62992
-0.34375 -0.03125 2.49937
-0.34375 0 2.48546
-0.375 0 2.61874
-0.34375 -0.03125 2.49937
-0.3125 -0.03125 2.05055
-0.3125 0 2.029
-0.34375 0 2.48546
-0.328125 -0.03125 2.2764
-0.3125 -0.015625 2.04015
-0.328125 0 2.25876
-0.34375 -0.015625 2.49303
-0.328125 -0.015625 2.26807
-0.34375 -0.0625 2.54563
-0.3125 -0.0625 2.12636
-0.3125 -0.03125 2.05055
-0.34375 -0.03125 2.49937
-0.328125 -0.0625 2.33713
-0.3125 -0.046875 2.0889
-0.328125 -0.03125 2.2764
-0.34375 -0.046875 2.52317
-0.328125 -0.046875 2.30732
-0.375 -0.0625 2.6376
-0.34375 -0.0625 2.54563
-0.34375 -0.03125 2.49937
-0.375 -0.03125 2.62992
-0.359375 -0.0625 2.59163
-0.34375 -0.046875 2.52317
-0.359375 -0.03125 2.56465
-0.375 -0.046875 2.63441
-0.359375 -0.046875 2.57879
-0.3125 -0.03125 2.05055
-0.28125 -0.03125 1.64096
-0.28125 0 1.62422
-0.3125 0 2.029
-0.296875 -0.03125 1.84778
-0.28125 -0.015625 1.63276
-0.296875 0 1.82861
-0.3125 -0.015625 2.04015
-0.296875 -0.015625 1.83846
-0.28125 -0.03125 1.64096
-0.25 -0.03125 1.40462
-0.25 0 1.39522
-0.28125 0 1.62422
-0.265625 -0.03125 1.52367
-0.25 -0.015625 1.4
-0.265625 0 1.51055
-0.28125 -0.015625 1.63276
-0.265625 -0.015625 1.51723
-0.28125 -0.0625 1.69772
-0.25 -0.0625 1.43471
-0.25 -0.03125 1.40462
-0.28125 -0.03125 1.64096
-0.265625 -0.0625 1.56727
-0.25 -0.046875 1.41976
-0.265625 -0.03125 1.52367
-0.28125 -0.046875 1.66956
-0.265625 -0.046875 1.54562
-0.3125 -0.0625 2.12636
-0.28125 -0.0625 1.69772
-0.28125 -0.03125 1.64096
-0.3125 -0.03125 2.05055
-0.296875 -0.0625 1.91416
-0.28125 -0.046875 1.66956
-0.296875 -0.03125 1.84778
-0.3125 -0.046875 2.0889
-0.296875 -0.046875 1.8813
-0.3125 -0.09375 2.26581
-0.28125 -0.09375 1.81052
-0.28125 -0.0625 1.69772
-0.3125 -0.0625 2.12636
-0.296875 -0.09375 2.04033
-0.28125 -0.078125 1.75449
-0.296875 -0.0625 1.91416
-0.3125 -0.078125 2.19669
-0.296875 -0.078125 1.97773
-0.28125 -0.09375 1.81052
-0.25 -0.09375 1.49658
-0.25 -0.0625 1.43471
-0.28125 -0.0625 1.69772
-0.265625 -0.09375 1.65495
-0.25 -0.078125 1.46581
-0.265625 -0.0625 1.56727
-0.28125 -0.078125 1.75449
-0.265625 -0.078125 1.61137
-0.257812 -0.09375 1.57621
-0.257812 -0.078125 1.53898
-0.257812 -0.0625 1.50133
-0.28125 -0.125 1.99305
-0.25 -0.125 1.61434
-0.25 -0.09375 1.49658
-0.28125 -0.09375 1.81052
-0.265625 -0.125 1.80553
-0.25 -0.109375 1.55582
-0.265625 -0.09375 1.65495
-0.28125 -0.109375 1.90246
-0.265625 -0.109375 1.73075
-0.273438 -0.125 1.89965
-0.265625 -0.117188 1.76826
-0.273438 -0.109375 1.81692
[...]
POINT_DATA 18316
SCALARS "pressure" float 1
LOOKUP_TABLE default
1.0901
1.39517
1.41535
1.12623
1.24758
1.4053
1.27567
1.10818
1.26165
1.17021
1.18627
1.32249
1.33458
1.34661
1.20229
1.39517
2.30842
2.32596
1.41535
1.87096
2.31752
1.88978
1.4053
1.88052
1.63888
1.6487
1.51864
1.5286
1.75622
1.76591
2.09358
2.10291
2.11177
1.65835
1.53845
1.77536
1.32805
2.24267
2.30842
1.39517
1.80474
2.27594
1.87096
1.36175
1.83807
1.57233
1.60577
1.45185
1.48539
1.68986
1.72323
2.0276
2.06089
2.09358
1.63888
1.51864
1.75622
1.05482
1.32805
1.39517
1.0901
1.19506
1.36175
1.24758
1.07246
1.22136
1.12594
1.14809
1.26237
1.29251
1.32249
1.17021
2.30842
2.58312
2.58373
2.32596
2.44782
2.58397
2.45676
2.31752
2.45272
2.58312
2.62992
2.61874
2.58373
2.60693
2.62498
2.60159
2.58397
2.60486
2.55707
2.6376
2.62992
2.58312
2.5979
2.63441
2.60693
2.57062
2.603
2.24267
2.55707
2.58312
2.30842
2.40232
2.57062
2.44782
2.27594
2.42552
2.11854
2.51426
2.55707
2.24267
2.31992
2.53613
2.40232
2.18115
2.36158
2.22015
2.27213
2.41793
2.44957
2.48029
2.32312
2.51426
2.63835
2.6376
2.55707
2.57711
2.63852
2.5979
2.53613
2.588
2.45626
2.64086
2.63835
2.51426
2.54973
2.64019
2.57711
2.4857
2.56392
2.59559
2.64067
2.6023
2.55695
2.59908
2.63942
2.60793
2.57064
2.60525
1.90527
2.45626
2.51426
2.11854
2.18715
2.4857
2.31992
2.01299
2.25414
2.04795
2.13484
1.97707
2.0916
2.07425
1.95941
2.0259
2.11797
2.2208
2.1948
2.15656
2.32316
2.37104
2.25554
2.34722
2.31288
2.28434
2.39006
2.47109
2.42864
2.40947
2.41793
2.3946
2.36914
2.28717
2.34114
2.50009
2.4663
2.44759
2.22015
2.17769
2.16958
2.06602
2.12214
2.27026
2.2327
1.02722
1.22292
1.32805
1.05482
1.12684
1.27582
1.19506
1.04102
1.16105
1.07751
1.10175
1.17529
1.21903
1.26237
1.12594
1.22292
2.11854
2.24267
1.32805
1.69001
2.18115
1.80474
1.27582
1.74776
1.46245
1.51774
1.34437
1.39844
1.57755
1.63407
1.90809
1.9683
2.0276
1.57233
1.45185
1.68986
1.1079
1.90527
2.11854
1.22292
1.52311
2.01299
1.69001
1.16584
1.60728
1.32064
1.39211
1.21572
1.28054
1.423
1.50092
1.71745
1.81367
1.62118
1.7658
1.71146
1.56538
1.66653
1.8121
1.95941
1.91413
1.86337
1.90809
1.80011
2.06602
2.01417
1.8611
1.96439
1.46245
1.34437
1.57755
1.01078
1.1079
1.22292
1.02722
1.05979
1.16584
1.12684
1.019
1.09343
1.0354
1.05649
1.08395
1.13698
1.12987
1.07664
1.10698
1.19448
1.17529
1.11017
1.15264
1.07751
2.62992
2.49937
2.48546
2.61874
2.49937
2.05055
2.029
2.48546
2.2764
2.04015
2.25876
2.49303
2.26807
2.54563
2.12636
2.05055
2.49937
2.33713
2.0889
2.2764
2.52317
2.30732
2.6376
2.54563
2.49937
2.62992
2.59163
2.52317
2.56465
2.63441
2.57879
2.05055
1.64096
1.62422
2.029
1.84778
1.63276
1.82861
2.04015
1.83846
1.64096
1.40462
1.39522
1.62422
1.52367
1.4
1.51055
1.63276
1.51723
1.69772
1.43471
1.40462
1.64096
1.56727
1.41976
1.52367
1.66956
1.54562
2.12636
1.69772
1.64096
2.05055
1.91416
1.66956
1.84778
2.0889
1.8813
2.26581
1.81052
1.69772
2.12636
2.04033
1.75449
1.91416
2.19669
1.97773
1.81052
1.49658
1.43471
1.69772
1.65495
1.46581
1.56727
1.75449
1.61137
1.57621
1.53898
1.50133
1.99305
1.61434
1.49658
1.81052
1.80553
1.55582
1.65495
1.90246
1.73075
1.89965
1.76826
1.81692
1.9479
1.85842
1.71051
1.64379
1.5263
1.57621
1.693
1.61012
1.73301
1.85667
1.77513
2.44262
1.99305
1.81052
2.26581
2.21963
1.90246
2.04033
2.35493
2.13065
2.63835
2.60397
2.54563
2.6376
2.62126
2.57545
2.59163
2.63852
2.60703
2.60397
2.26581
2.12636
2.54563
2.43552
2.19669
2.33713
2.57545
2.38693
2.51988
2.41137
2.48137
2.58987
2.50077
2.35084
2.23139
2.29207
2.3216
2.16169
2.23209
2.36219
2.26224
2.44161
2.56071
2.46166
2.63991
2.44262
2.26581
2.60397
2.54143
2.35493
2.43552
2.62257
2.4891
2.59071
2.51541
2.55591
2.6314
2.57346
2.49207
2.39894
2.42211
2.45725
2.31056
2.35084
2.46247
2.38665
2.51988
2.61343
2.53805
2.64086
2.63991
2.60397
2.63835
2.6406
2.62257
2.62126
2.64019
2.63153
2.59736
2.64651
2.63991
2.64086
2.6223
2.6437
2.6406
2.61959
2.63193
2.64651
2.59056
2.44262
2.63991
2.61864
2.51721
2.54143
2.6437
2.58054
2.59971
2.64522
2.6326
2.60921
2.62249
2.6459
2.62758
2.59016
2.61214
2.64449
2.61735
2.55403
2.60463
2.57233
2.57689
2.59079
2.53566
2.5489
2.56293
2.48008
2.49207
2.56112
2.52063
2.59071
2.64193
2.60155
2.64697
2.64626
2.59056
2.64651
2.64688
2.6189
2.61864
2.64721
2.63323
2.50003
2.64697
2.64651
2.59736
2.57436
2.64721
2.6223
2.54927
2.59883
2.53741
2.58672
2.57419
2.52479
2.55593
2.61089
2.6472
2.62317
2.61714
2.64698
2.6345
2.61069
2.62896
2.60992
2.57346
2.59219
2.59056
2.23433
1.99305
2.44262
2.41335
2.11464
2.21963
2.51721
2.3172
2.50214
2.36544
2.41747
2.55403
2.45996
2.3241
2.1747
2.2163
2.27038
2.05411
2.10689
2.26861
2.16182
2.33149
2.48008
2.37465
2.23433
1.80766
1.61434
1.99305
2.02299
1.71173
1.80553
2.11464
1.91509
2.12906
1.96922
2.01524
2.1747
2.07235
1.91594
1.75985
1.814
1.86514
1.66324
1.71051
1.86055
1.76248
1.89965
2.05411
1.9577
2.47662
2.07448
1.80766
2.23433
2.27699
1.94217
2.02299
2.35631
2.15091
2.64626
2.47662
2.23433
2.59056
2.56165
2.35631
2.41335
2.6189
2.48806
2.604
2.52499
2.55358
2.6327
2.57891
2.51919
2.41665
2.42232
2.47091
2.29556
2.3241
2.45086
2.37339
2.50214
2.60486
2.528
2.64673
2.62596
2.47662
2.64626
2.63659
2.55177
2.56165
2.64689
2.59951
2.64172
2.61814
2.62324
2.64691
2.63257
2.63134
2.58898
2.57569
2.60361
2.51432
2.51919
2.58068
2.54755
2.604
2.64668
2.61372
2.62596
2.37573
2.07448
2.47662
2.50137
2.22621
2.27699
2.55177
2.38986
2.56378
2.44577
2.471
2.58898
2.51752
2.4387
2.30121
2.30829
2.37368
2.15066
2.17617
2.33362
2.24247
2.37711
2.51432
2.42421
2.64228
2.59827
2.37573
2.62596
2.62063
2.48757
2.50137
2.63448
2.56139
2.63154
2.5911
2.59802
2.63846
2.61486
2.60954
2.54305
2.52458
2.56717
2.43181
2.4387
2.53148
2.48176
2.56378
2.63031
2.58099
2.62008
2.64228
2.62596
2.64673
2.63159
2.63448
2.63659
2.63384
2.63448
2.40509
2.58727
2.64697
2.50003
2.49728
2.61761
2.57436
2.45306
2.53631
2.58727
2.64673
2.64626
2.64697
2.61744
2.64689
2.64688
2.61761
2.63259
2.63983
2.64668
2.64664
2.63985
2.64334
2.62519
2.64699
2.63241
2.6362
2.46181
2.62008
2.64673
2.58727
2.54186
2.63384
2.61744
2.52525
2.58019
2.50207
2.56116
2.55288
2.49371
2.52763
2.5812
2.62706
2.60718
2.59431
2.64039
2.63219
2.59895
2.61981
2.60246
2.55644
2.57783
2.02491
2.46181
2.58727
2.40509
2.24747
2.52525
2.49728
2.21811
2.37395
2.13729
2.31111
2.29661
2.12234
2.21754
2.08138
2.17756
2.17015
2.07384
2.12594
2.19264
2.2794
2.26452
2.22871
2.34263
2.33542
2.25722
2.30009
2.25751
2.17043
2.214
2.35561
2.49371
2.45015
2.40315
2.30179
2.37944
2.35732
2.32964
2.55644
2.54255
2.43599
2.49661
2.45146
2.31233
2.37457
2.33573
2.34356
2.26541
2.3007
1.00383
1.02472
1.1079
1.01078
1.0143
1.06656
1.05979
1.00731
1.03711
1.00907
1.02572
1.02225
1.00557
1.01566
1.01952
1.0457
1.05187
1.03573
1.08729
1.08395
1.04846
1.06795
1.0354
1.02472
1.58445
1.90527
1.1079
1.31381
1.74728
1.52311
1.06656
1.41967
1.17204
1.24701
1.09915
1.15787
1.06214
1.12863
1.1125
1.0457
1.08741
1.13577
1.2097
1.2027
1.16938
1.24355
1.36706
1.33421
1.28913
1.45102
1.66652
1.58604
1.51901
1.38293
1.44365
1.51817
1.62565
1.59327
1.48514
1.55587
1.70706
1.66724
1.55264
1.63039
1.50356
1.71745
1.65217
1.62118
1.47167
1.56273
1.82684
1.8121
1.74016
1.32064
1.21572
1.1869
1.16219
1.08729
1.13743
1.28399
1.26852
1.23574
1.423
1.37883
1.00327
1.26764
1.58445
1.02472
1.13781
1.42877
1.31381
1.01401
1.22678
1.0712
1.12196
1.03741
1.06841
1.02038
1.05295
1.04132
1.00865
1.03087
1.05435
1.09667
1.09529
1.07488
1.10466
1.18255
1.17473
1.13986
1.20324
1.34895
1.32892
1.26657
1.17066
1.23503
1.22478
1.16025
1.19781
1.23556
1.30849
1.30795
1.27192
1.38904
1.37911
1.29786
1.34368
1.27816
1.20473
1.25156
1.50723
1.45102
1.27052
1.39039
1.35976
1.33086
1.24871
1.30459
1.46816
1.44916
1.41427
1.54599
1.51817
1.4208
1.48379
1.38293
1.17204
1.09915
1.06214
1.14708
1.13577
1.08381
1.11559
1.24355
1.20929
1.00127
1.00327
1.02472
1.00383
1.00227
1.01401
1.0143
1.00255
1.00829
1.58445
2.38275
2.45626
1.90527
1.9971
2.41994
2.18715
1.74728
2.09304
1.79473
1.92282
1.69066
1.85917
1.83576
1.66652
1.76372
1.89682
2.04531
2.00855
1.95299
2.19279
2.25857
2.09572
2.22583
2.17635
2.13622
2.28843
2.40146
2.33974
2.31421
2.32316
2.29101
2.25554
2.14031
2.21612
2.43821
2.39006
2.36502
2.04795
1.98574
1.97707
1.82684
1.90686
2.11797
2.06354
2.38275
2.59736
2.64086
2.45626
2.49142
2.61959
2.54973
2.41994
2.52103
2.11801
2.50003
2.59736
2.38275
2.31225
2.54927
2.49142
2.25201
2.4028
2.21597
2.35777
2.32795
2.18544
2.27229
2.40691
2.52479
2.47656
2.44192
2.57346
2.54473
2.44735
2.51083
2.43743
2.31777
2.383
1.26764
2.11801
2.38275
1.58445
1.70983
2.25201
1.9971
1.42877
1.85536
1.49394
1.64654
1.91734
2.05678
2.19279
1.79473
1.06047
1.6859
2.11801
1.26764
1.38416
1.90604
1.70983
1.16546
1.54969
1.22564
1.36182
1.14398
1.29428
1.26483
1.11335
1.20487
1.30564
1.46766
1.45671
1.38182
1.53726
1.79709
1.73068
1.6349
1.46132
1.58632
1.55197
1.4261
1.50686
1.61209
1.74179
1.71657
1.6646
1.85183
1.819
1.68301
1.76803
1.64096
1.50885
1.59666
2.01295
1.91734
1.63038
1.82478
1.77793
1.72844
1.59019
1.68488
1.95974
1.91957
1.86951
2.06571
2.01845
1.87125
1.96922
1.81452
1.49394
1.42835
1.38224
1.21687
1.32393
1.60305
1.53042
1.6859
2.40509
2.50003
2.11801
2.0563
2.45306
2.31225
1.90604
2.18577
1.87419
2.12142
2.0476
1.79709
1.96157
1.78088
1.91806
1.87994
1.74179
1.83064
1.96597
2.08896
2.04204
2.00414
2.15369
2.11709
2.00475
2.07969
1.97727
1.85183
1.92881
2.23304
2.32083
2.1453
2.27715
2.25367
2.19977
2.31962
2.4292
2.38728
2.35361
2.47667
2.40691
2.24936
2.36408
2.3425
2.30699
2.21766
2.2804
2.42063
2.45365
2.38554
2.35977
2.28089
2.33345
2.21597
2.01295
2.13238
2.09014
2.07298
1.95974
2.02532
2.19116
2.15425
2.26432
2.17432
2.22785
2.16721
2.06571
2.12027
1.24176
2.02491
2.40509
1.6859
1.64815
2.21811
2.0563
1.46905
1.85594
1.44946
1.75306
1.66614
1.35688
1.559
1.83954
2.12234
2.03963
1.94048
2.31233
2.23304
1.95697
2.13711
1.87419
1.57862
1.77113
1.00317
1.24176
1.6859
1.06047
1.12441
1.46905
1.38416
1.03195
1.25635
1.06433
1.19094
1.14585
1.01759
1.10532
1.03389
1.06174
1.0945
1.15782
1.14838
1.08488
1.12154
1.22378
1.20149
1.12564
1.17503
1.08936
1.18352
1.35688
1.36395
1.27472
1.15408
1.22938
1.23305
1.19376
1.21274
1.29971
1.31599
1.26469
1.41331
1.41679
1.31957
1.36668
1.31048
1.27195
1.57862
1.53726
1.32073
1.4514
1.40788
1.38653
1.28866
1.34867
1.52414
1.51541
1.46636
1.63253
1.61209
1.49452
1.56398
1.46132
1.35256
1.42408
1.22564
1.14398
1.06077
1.11677
1.10247
1.04624
1.08168
1.11772
1.18595
1.18503
1.15152
1.30564
1.2539
1.00035
1.0009
1.00327
1.00127
1.0009
1.06047
1.26764
1.00327
1.03082
1.16546
1.13781
1.00209
1.08472
1.0159
1.05788
1.04366
1.00149
1.02981
1.04568
1.11335
1.12531
1.08572
1.21687
1.20324
1.11136
1.16448
1.0712
1.02294
1.03741
1.06425
1.10466
1.05746
1.08451
1.00021
1.00317
1.06047
1.0009
1.00169
1.03195
1.03082
1.00056
1.01629
1.00008
1.00021
1.0009
1.00035
1.40462
1.27465
1.26812
1.39522
1.27465
1.16667
1.15961
1.26812
1.29412
1.18814
1.16667
1.27465
1.43471
1.29412
1.27465
1.40462
1.16667
1.07542
1.06898
1.15961
1.07542
1.00266
0.995358
1.06898
1.09579
1.02438
1.00266
1.07542
1.18814
1.09579
1.07542
1.16667
1.22422
1.13262
1.09579
1.18814
1.13262
1.06047
1.02438
1.09579
1.18867
1.11384
1.06047
1.13262
1.27782
1.18867
1.13262
1.22422
1.49658
1.32929
1.29412
1.43471
1.41341
1.31178
1.36477
1.46581
1.38921
1.32929
1.22422
1.18814
1.29412
1.3953
1.27782
1.22422
1.32929
1.61434
1.3953
1.32929
1.49658
1.50558
1.36245
1.41341
1.55582
1.45975
1.00266
0.933701
0.923298
0.995358
0.933701
0.865012
0.849631
0.923298
0.963037
0.90719
0.865012
0.933701
1.02438
0.963037
0.933701
1.00266
0.865012
0.811768
0.798038
0.849631
0.811768
0.798038
0.798038
0.798038
0.865012
0.849631
0.798038
0.811768
0.90719
0.865012
0.811768
0.865012
0.963037
0.933701
0.865012
0.90719
0.933701
0.923298
0.849631
0.865012
1.00266
0.995358
0.923298
0.933701
1.02438
1.00266
0.933701
0.963037
1.06047
1.00604
0.963037
1.02438
1.00604
0.963037
0.90719
0.963037
1.06047
1.02438
0.963037
1.00604
1.11384
1.06047
1.00604
1.06047
1.18867
1.13262
1.06047
1.11384
1.13262
1.09579
1.02438
1.06047
1.22422
1.18814
1.09579
1.13262
1.27782
1.22422
1.13262
1.18867
1.09579
1.07542
1.00266
1.02438
1.07542
1.06898
0.995358
1.00266
1.16667
1.15961
1.06898
1.07542
1.18814
1.16667
1.07542
1.09579
1.29412
1.27465
1.16667
1.18814
1.27465
1.26812
1.15961
1.16667
1.40462
1.39522
1.26812
1.27465
1.43471
1.40462
1.27465
1.29412
1.3953
1.32929
1.22422
1.27782
1.32929
1.29412
1.18814
1.22422
1.49658
1.43471
1.29412
1.32929
1.46581
1.36477
1.31178
1.41341
1.38921
1.61434
1.49658
1.32929
1.3953
1.55582
1.41341
1.36245
1.50558
1.45975
1.80766
1.51657
1.3953
1.61434
1.66333
1.4563
1.50558
1.71173
1.58499
1.73574
1.62428
1.64856
1.75985
1.69228
1.59033
1.48651
1.52095
1.55573
1.4259
1.45068
1.54544
1.48594
1.56011
1.66324
1.60452
1.51657
1.35882
1.27782
1.3953
1.43813
1.3185
1.33682
1.4563
1.38774
1.71628
1.48981
1.35882
1.51657
1.60387
1.42467
1.43813
1.61716
1.52154
1.66024
1.56282
1.56948
1.66688
1.615
1.54708
1.45731
1.47329
1.51028
1.39185
1.39861
1.47999
1.43608
1.47744
1.56708
1.52364
2.07448
1.71628
1.51657
1.80766
1.89697
1.61716
1.66333
1.94217
1.78106
1.98605
1.83921
1.8619
2.00857
1.92419
1.80711
1.66688
1.69954
1.7535
1.56708
1.59033
1.72246
1.64517
1.73574
1.87523
1.79911
1.35882
1.26345
1.18867
1.27782
1.26345
1.18867
1.11384
1.18867
1.35882
1.27782
1.18867
1.26345
1.48981
1.35882
1.26345
1.35882
1.42467
1.31133
1.31133
1.42467
1.36827
1.71628
1.51657
1.35882
1.48981
1.61716
1.43813
1.42467
1.60387
1.52154
1.66688
1.56948
1.56282
1.66024
1.615
1.56708
1.47744
1.47999
1.52364
1.39861
1.39185
1.47329
1.43608
1.45731
1.54708
1.51028
1.51657
1.3953
1.27782
1.35882
1.4563
1.33682
1.3185
1.43813
1.38774
1.80766
1.61434
1.3953
1.51657
1.71173
1.50558
1.4563
1.66333
1.58499
1.75985
1.64856
1.62428
1.73574
1.69228
1.66324
1.56011
1.54544
1.60452
1.45068
1.4259
1.52095
1.48594
1.48651
1.59033
1.55573
2.07448
1.80766
1.51657
1.71628
1.94217
1.66333
1.61716
1.89697
1.78106
2.00857
1.8619
1.83921
1.98605
1.92419
1.87523
1.73574
1.72246
1.79911
1.59033
1.56708
1.69954
1.64517
1.66688
1.80711
1.7535
2.37573
2.01307
1.71628
2.07448
2.19577
1.86592
1.89697
2.22621
2.04751
2.01307
1.71628
1.48981
1.71628
1.86592
1.60387
1.60387
1.86592
1.73592
1.93976
1.80114
1.80114
1.93976
1.87069
1.79147
1.66024
1.6702
1.73103
1.54708
1.54708
1.6702
1.60892
1.66024
1.79147
1.73103
2.37573
2.07448
1.71628
2.01307
2.22621
1.89697
1.86592
2.19577
2.04751
2.59827
2.37573
2.01307
2.37573
2.48757
2.19577
2.19577
2.48757
2.34253
2.54305
2.41524
2.41524
2.54305
2.4793
2.43181
2.28604
2.2694
2.35083
2.10482
2.10482
2.2694
2.18742
2.28604
2.43181
2.35083
2.64228
2.62596
2.37573
2.59827
2.63448
2.50137
2.48757
2.62063
2.56139
2.63846
2.59802
2.5911
2.63154
2.61486
2.63031
2.56378
2.53148
2.58099
2.4387
2.43181
2.52458
2.48176
2.54305
2.60954
2.56717
2.62596
2.47662
2.07448
2.37573
2.55177
2.27699
2.22621
2.50137
2.38986
2.58898
2.471
2.44577
2.56378
2.51752
2.51432
2.37711
2.33362
2.42421
2.17617
2.15066
2.30829
2.24247
2.30121
2.4387
2.37368
2.64673
2.64626
2.47662
2.62596
2.64689
2.56165
2.55177
2.63659
2.59951
2.64691
2.62324
2.61814
2.64172
2.63257
2.64668
2.604
2.58068
2.61372
2.51919
2.51432
2.57569
2.54755
2.58898
2.63134
2.60361
2.62008
2.64673
2.62596
2.64228
2.63384
2.63659
2.63448
2.63159
2.63448
2.47662
2.23433
1.80766
2.07448
2.35631
2.02299
1.94217
2.27699
2.15091
2.23433
1.99305
1.61434
1.80766
2.11464
1.80553
1.71173
2.02299
1.91509
2.1747
2.01524
1.96922
2.12906
2.07235
2.05411
1.89965
1.86055
1.9577
1.71051
1.66324
1.814
1.76248
1.75985
1.91594
1.86514
2.59056
2.44262
1.99305
2.23433
2.51721
2.21963
2.11464
2.41335
2.3172
2.55403
2.41747
2.36544
2.50214
2.45996
2.48008
2.33149
2.26861
2.37465
2.10689
2.05411
2.2163
2.16182
2.1747
2.3241
2.27038
2.64626
2.59056
2.23433
2.47662
2.6189
2.41335
2.35631
2.56165
2.48806
2.6327
2.55358
2.52499
2.604
2.57891
2.60486
2.50214
2.45086
2.528
2.3241
2.29556
2.42232
2.37339
2.41665
2.51919
2.47091
2.64697
2.64651
2.59056
2.64626
2.64721
2.61864
2.6189
2.64688
2.63323
2.64651
2.63991
2.44262
2.59056
2.6437
2.54143
2.51721
2.61864
2.58054
2.64522
2.59971
2.6459
2.62249
2.60921
2.6326
2.62758
2.64449
2.61214
2.59016
2.61735
2.64193
2.59071
2.56112
2.60155
2.49207
2.48008
2.5489
2.52063
2.55403
2.57689
2.57233
2.60463
2.59079
2.53566
2.56293
2.59736
2.64086
2.63991
2.64651
2.61959
2.6406
2.6437
2.6223
2.63193
2.50003
2.59736
2.64651
2.64697
2.54927
2.6223
2.64721
2.57436
2.59883
2.52479
2.57419
2.58672
2.53741
2.55593
2.57346
2.60992
2.61069
2.59219
2.6345
2.64698
2.62317
2.62896
2.6472
2.61089
2.61714
2.46181
2.58727
2.64673
2.62008
2.52525
2.61744
2.63384
2.54186
2.58019
2.49371
2.55288
2.56116
2.50207
2.52763
2.55644
2.60246
2.59895
2.57783
2.63219
2.64039
2.60718
2.61981
2.62706
2.5812
2.59431
2.58727
2.64697
2.64626
2.64673
2.61761
2.64688
2.64689
2.61744
2.63259
2.63241
2.64699
2.63985
2.62519
2.6362
2.64664
2.64668
2.63983
2.64334
2.40509
2.50003
2.64697
2.58727
2.45306
2.57436
2.61761
2.49728
2.53631
2.02491
2.40509
2.58727
2.46181
2.21811
2.49728
2.52525
2.24747
2.37395
2.12234
2.29661
2.31111
2.13729
2.21754
2.07384
2.17015
2.17756
2.08138
2.12594
2.17043
2.25751
2.25722
2.214
2.33542
2.34263
2.26452
2.30009
2.2794
2.19264
2.22871
2.31233
2.45146
2.43599
2.37457
2.26541
2.34356
2.33573
2.3007
2.54255
2.55644
2.45015
2.49661
2.49371
2.35561
2.40315
2.35732
2.37944
2.30179
2.32964
1.99305
1.81052
1.49658
1.61434
1.90246
1.65495
1.55582
1.80553
1.73075
1.9479
1.81692
1.76826
1.89965
1.85842
1.85667
1.73301
1.693
1.77513
1.57621
1.5263
1.64379
1.61012
1.71051
1.81052
1.69772
1.43471
1.49658
1.75449
1.56727
1.46581
1.65495
1.61137
1.50133
1.53898
1.57621
2.26581
2.12636
1.69772
1.81052
2.19669
1.91416
1.75449
2.04033
1.97773
2.44262
2.26581
1.81052
1.99305
2.35493
2.04033
1.90246
2.21963
2.13065
1.69772
1.64096
1.40462
1.43471
1.66956
1.52367
1.41976
1.56727
1.54562
1.64096
1.62422
1.39522
1.40462
1.63276
1.51055
1.4
1.52367
1.51723
2.05055
2.029
1.62422
1.64096
2.04015
1.82861
1.63276
1.84778
1.83846
2.12636
2.05055
1.64096
1.69772
2.0889
1.84778
1.66956
1.91416
1.8813
2.54563
2.49937
2.05055
2.12636
2.52317
2.2764
2.0889
2.33713
2.30732
2.49937
2.48546
2.029
2.05055
2.49303
2.25876
2.04015
2.2764
2.26807
2.62992
2.61874
2.48546
2.49937
2.6376
2.62992
2.49937
2.54563
2.63441
2.56465
2.52317
2.59163
2.57879
2.63991
2.60397
2.26581
2.44262
2.62257
2.43552
2.35493
2.54143
2.4891
2.6314
2.55591
2.51541
2.59071
2.57346
2.61343
2.51988
2.46247
2.53805
2.35084
2.31056
2.42211
2.38665
2.39894
2.49207
2.45725
2.60397
2.54563
2.12636
2.26581
2.57545
2.33713
2.19669
2.43552
2.38693
2.58987
2.48137
2.41137
2.51988
2.50077
2.56071
2.44161
2.36219
2.46166
2.23209
2.16169
2.29207
2.26224
2.23139
2.35084
2.3216
2.63835
2.6376
2.54563
2.60397
2.63852
2.59163
2.57545
2.62126
2.60703
2.64086
2.63835
2.60397
2.63991
2.64019
2.62126
2.62257
2.6406
2.63153
2.45626
2.51426
2.63835
2.64086
2.4857
2.57711
2.64019
2.54973
2.56392
2.57064
2.60793
2.63942
2.6023
2.60525
2.55695
2.64067
2.59559
2.59908
2.51426
2.55707
2.6376
2.63835
2.53613
2.5979
2.63852
2.57711
2.588
2.11854
2.24267
2.55707
2.51426
2.18115
2.40232
2.53613
2.31992
2.36158
2.27213
2.22015
2.32312
2.48029
2.44957
2.41793
1.90527
2.11854
2.51426
2.45626
2.01299
2.31992
2.4857
2.18715
2.25414
2.13484
2.04795
1.95941
2.07425
2.0916
1.97707
2.0259
2.1948
2.2208
2.11797
2.15656
2.22015
2.06602
2.16958
2.17769
2.12214
2.27026
2.28717
2.23269
2.41793
2.37104
2.36914
2.3946
2.31288
2.34114
2.4663
2.50009
2.42864
2.44759
2.32316
2.34722
2.25554
2.28434
2.47109
2.39006
2.40947
2.55707
2.58312
2.62992
2.6376
2.57062
2.60693
2.63441
2.5979
2.603
2.58312
2.58373
2.61874
2.62992
2.58397
2.60159
2.62498
2.60693
2.60486
2.30842
2.32596
2.58373
2.58312
2.31752
2.45676
2.58397
2.44782
2.45272
2.24267
2.30842
2.58312
2.55707
2.27594
2.44782
2.57062
2.40232
2.42552
1.32805
1.39517
2.30842
2.24267
1.36175
1.87095
2.27594
1.80474
1.83807
1.60577
1.57233
1.48539
1.45185
1.63888
1.51864
2.09358
2.06089
2.0276
1.39517
1.41535
2.32596
2.30842
1.40529
1.88978
2.31752
1.87095
1.88052
1.6487
1.63888
1.5286
1.51864
1.65835
1.53845