# vtk DataFile Version 2.0

ASCII

DATASET UNSTRUCTURED_GRID
POINTS 13463 float
-0.5 -0.03125 1.09233
-0.46875 -0.03125 1.25724
-0.46875 0 1.26737
-0.5 0 1.11121
-0.484375 -0.03125 1.17478
-0.46875 -0.015625 1.2623
-0.484375 0 1.18929
-0.5 -0.015625 1.10177
-0.484375 -0.015625 1.18204
-0.46875 -0.03125 1.25724
-0.4375 -0.03125 1.64337
-0.4375 0 1.64959
-0.46875 0 1.26737
-0.46875 -0.0625 1.22256
-0.4375 -0.0625 1.62125
-0.4375 -0.03125 1.64337
-0.46875 -0.03125 1.25724
-0.453125 -0.0625 1.4219
-0.4375 -0.046875 1.63231
-0.453125 -0.03125 1.45031
-0.46875 -0.046875 1.2399
-0.453125 -0.046875 1.4361
-0.5 -0.0625 1.06714
-0.46875 -0.0625 1.22256
-0.46875 -0.03125 1.25724
-0.5 -0.03125 1.09233
-0.4375 -0.03125 1.64337
-0.40625 -0.03125 1.66799
-0.40625 0 1.66075
-0.4375 0 1.64959
-0.421875 -0.03125 1.65568
-0.40625 -0.015625 1.66437
-0.421875 0 1.65517
-0.4375 -0.015625 1.64648
-0.421875 -0.015625 1.65542
-0.40625 -0.03125 1.66799
-0.375 -0.03125 1.57265
-0.375 0 1.5605
-0.40625 0 1.66075
-0.40625 -0.0625 1.67288
-0.375 -0.0625 1.59706
-0.375 -0.03125 1.57265
-0.40625 -0.03125 1.66799
-0.390625 -0.0625 1.63497
-0.375 -0.046875 1.58485
-0.390625 -0.03125 1.62032
-0.40625 -0.046875 1.67043
-0.390625 -0.046875 1.62764
-0.4375 -0.0625 1.62125
-0.40625 -0.0625 1.67288
-0.40625 -0.03125 1.66799
-0.4375 -0.03125 1.64337
-0.421875 -0.0625 1.64706
-0.40625 -0.046875 1.67043
-0.421875 -0.03125 1.65568
-0.4375 -0.046875 1.63231
-0.421875 -0.046875 1.65137
-0.4375 -0.09375 1.57492
-0.40625 -0.09375 1.67589
-0.40625 -0.0625 1.67288
-0.4375 -0.0625 1.62125
-0.421875 -0.09375 1.6254
-0.40625 -0.078125 1.67438
-0.421875 -0.0625 1.64706
-0.4375 -0.078125 1.59809
-0.421875 -0.078125 1.63623
-0.429688 -0.09375 1.60016
-0.421875 -0.0859375 1.63082
-0.429688 -0.078125 1.61716
-0.4375 -0.0859375 1.5865
-0.429688 -0.0859375 1.60866
-0.414062 -0.09375 1.65065
-0.40625 -0.0859375 1.67514
-0.414062 -0.078125 1.65531
-0.414062 -0.0859375 1.65298
-0.40625 -0.0703125 1.67363
-0.414062 -0.0625 1.65997
-0.421875 -0.0703125 1.64165
-0.414062 -0.0703125 1.65764
-0.429688 -0.0625 1.63416
-0.4375 -0.0703125 1.60967
-0.429688 -0.0703125 1.62566
-0.40625 -0.09375 1.67589
-0.375 -0.09375 1.6235
-0.375 -0.0625 1.59706
-0.40625 -0.0625 1.67288
-0.390625 -0.09375 1.64969
-0.375 -0.078125 1.61028
-0.390625 -0.0625 1.63497
-0.40625 -0.078125 1.67438
-0.390625 -0.078125 1.64233
-0.40625 -0.125 1.6766
-0.375 -0.125 1.66355
-0.375 -0.09375 1.6235
-0.40625 -0.09375 1.67589
-0.390625 -0.125 1.67008
-0.375 -0.109375 1.64352
-0.390625 -0.09375 1.64969
-0.40625 -0.109375 1.67625
-0.390625 -0.109375 1.65988
-0.4375 -0.125 1.4883
-0.40625 -0.125 1.6766
-0.40625 -0.09375 1.67589
-0.4375 -0.09375 1.57492
-0.421875 -0.125 1.58245
-0.40625 -0.109375 1.67625
-0.421875 -0.09375 1.6254
-0.4375 -0.109375 1.53161
-0.421875 -0.109375 1.60393
-0.429688 -0.125 1.53538
-0.429688 -0.109375 1.56777
-0.433594 -0.125 1.51184
-0.429688 -0.117188 1.55157
-0.433594 -0.109375 1.54969
-0.4375 -0.117188 1.50996
-0.433594 -0.117188 1.53077
-0.425781 -0.125 1.55892
-0.421875 -0.117188 1.59319
-0.425781 -0.109375 1.58585
-0.425781 -0.117188 1.57238
-0.414062 -0.125 1.62953
-0.414062 -0.109375 1.64009
-0.417969 -0.125 1.60599
-0.414062 -0.117188 1.63481
-0.417969 -0.109375 1.62201
-0.417969 -0.117188 1.614
-0.410156 -0.125 1.65307
-0.40625 -0.117188 1.67643
-0.410156 -0.109375 1.65817
-0.410156 -0.117188 1.65562
-0.414062 -0.09375 1.65065
-0.414062 -0.101562 1.64537
-0.417969 -0.09375 1.63803
-0.421875 -0.101562 1.61467
-0.417969 -0.101562 1.63002
-0.40625 -0.101562 1.67607
-0.410156 -0.09375 1.66327
-0.410156 -0.101562 1.66072
-0.429688 -0.09375 1.60016
-0.429688 -0.101562 1.58397
-0.433594 -0.09375 1.58754
-0.4375 -0.101562 1.55327
-0.433594 -0.101562 1.56862
-0.425781 -0.09375 1.61278
-0.425781 -0.101562 1.59932
-0.5 -0.09375 1.04175
-0.46875 -0.09375 1.16611
-0.46875 -0.0625 1.22256
-0.5 -0.0625 1.06714
-0.484375 -0.09375 1.10393
-0.46875 -0.078125 1.19433
-0.484375 -0.0625 1.14485
-0.5 -0.078125 1.05444
-0.484375 -0.078125 1.12439
-0.46875 -0.09375 1.16611
-0.4375 -0.09375 1.57492
-0.4375 -0.0625 1.62125
-0.46875 -0.0625 1.22256
-0.46875 -0.125 1.09994
-0.4375 -0.125 1.4883
-0.4375 -0.09375 1.57492
-0.46875 -0.09375 1.16611
-0.453125 -0.125 1.29412
-0.4375 -0.109375 1.53161
-0.453125 -0.09375 1.37052
-0.46875 -0.109375 1.13303
-0.453125 -0.109375 1.33232
-0.5 -0.125 1.02217
-0.46875 -0.125 1.09994
-0.46875 -0.09375 1.16611
-0.5 -0.09375 1.04175
-0.484375 -0.125 1.06106
-0.46875 -0.109375 1.13303
-0.484375 -0.09375 1.10393
-0.5 -0.109375 1.03196
-0.484375 -0.109375 1.08249
-0.492188 -0.125 1.04161
-0.484375 -0.117188 1.07178
-0.492188 -0.109375 1.05723
-0.5 -0.117188 1.02707
-0.492188 -0.117188 1.04942
-0.476562 -0.125 1.0805
-0.46875 -0.117188 1.11649
-0.476562 -0.109375 1.10776
-0.476562 -0.117188 1.09413
-0.46875 -0.101562 1.14957
-0.476562 -0.09375 1.13502
-0.484375 -0.101562 1.09321
-0.476562 -0.101562 1.12139
-0.492188 -0.09375 1.07284
-0.5 -0.101562 1.03686
-0.492188 -0.101562 1.06504
-0.375 -0.03125 1.57265
-0.34375 -0.03125 1.41386
-0.34375 0 1.40037
-0.375 0 1.5605
-0.34375 -0.03125 1.41386
-0.3125 -0.03125 1.06003
-0.3125 0 1.04179
-0.34375 0 1.40037
-0.34375 -0.0625 1.45679
-0.3125 -0.0625 1.12072
-0.3125 -0.03125 1.06003
-0.34375 -0.03125 1.41386
-0.328125 -0.0625 1.28876
-0.3125 -0.046875 1.09037
-0.328125 -0.03125 1.23694
-0.34375 -0.046875 1.43533
-0.328125 -0.046875 1.26285
-0.375 -0.0625 1.59706
-0.34375 -0.0625 1.45679
-0.34375 -0.03125 1.41386
-0.375 -0.03125 1.57265
-0.359375 -0.0625 1.52693
-0.34375 -0.046875 1.43533
-0.359375 -0.03125 1.49325
-0.375 -0.046875 1.58485
-0.359375 -0.046875 1.51009
-0.3125 -0.03125 1.06003
-0.28125 -0.03125 0.75257
-0.28125 0 0.736663
-0.3125 0 1.04179
-0.28125 -0.03125 0.75257
-0.25 -0.03125 0.541428
-0.25 0 0.528799
-0.28125 0 0.736663
-0.28125 -0.0625 0.803955
-0.25 -0.0625 0.580729
-0.25 -0.03125 0.541428
-0.28125 -0.03125 0.75257
-0.265625 -0.0625 0.692342
-0.25 -0.046875 0.561079
-0.265625 -0.03125 0.646999
-0.28125 -0.046875 0.778262
-0.265625 -0.046875 0.66967
-0.3125 -0.0625 1.12072
-0.28125 -0.0625 0.803955
-0.28125 -0.03125 0.75257
-0.3125 -0.03125 1.06003
-0.3125 -0.09375 1.22797
-0.28125 -0.09375 0.897183
-0.28125 -0.0625 0.803955
-0.3125 -0.0625 1.12072
-0.296875 -0.09375 1.06258
-0.28125 -0.078125 0.850569
-0.296875 -0.0625 0.962336
-0.3125 -0.078125 1.17434
-0.296875 -0.078125 1.01246
-0.28125 -0.09375 0.897183
-0.25 -0.09375 0.650858
-0.25 -0.0625 0.580729
-0.28125 -0.0625 0.803955
-0.265625 -0.09375 0.77402
-0.25 -0.078125 0.615794
-0.265625 -0.0625 0.692342
-0.28125 -0.078125 0.850569
-0.265625 -0.078125 0.733181
-0.28125 -0.125 1.03454
-0.25 -0.125 0.757645
-0.25 -0.09375 0.650858
-0.28125 -0.09375 0.897183
-0.265625 -0.125 0.896092
-0.25 -0.109375 0.704252
-0.265625 -0.09375 0.77402
-0.28125 -0.109375 0.965861
-0.265625 -0.109375 0.835056
-0.3125 -0.125 1.36599
-0.28125 -0.125 1.03454
-0.28125 -0.09375 0.897183
-0.3125 -0.09375 1.22797
-0.375 -0.09375 1.6235
-0.34375 -0.09375 1.51134
-0.34375 -0.0625 1.45679
-0.375 -0.0625 1.59706
-0.359375 -0.09375 1.56742
-0.34375 -0.078125 1.48407
-0.359375 -0.0625 1.52693
-0.375 -0.078125 1.61028
-0.359375 -0.078125 1.54717
-0.34375 -0.09375 1.51134
-0.3125 -0.09375 1.22797
-0.3125 -0.0625 1.12072
-0.34375 -0.0625 1.45679
-0.328125 -0.09375 1.36966
-0.3125 -0.078125 1.17434
-0.328125 -0.0625 1.28876
-0.34375 -0.078125 1.48407
-0.328125 -0.078125 1.32921
-0.335938 -0.09375 1.4405
-0.328125 -0.0859375 1.34943
-0.335938 -0.078125 1.40664
-0.34375 -0.0859375 1.49771
-0.335938 -0.0859375 1.42357
-0.320312 -0.09375 1.29881
-0.3125 -0.0859375 1.20115
-0.320312 -0.078125 1.25177
-0.320312 -0.0859375 1.27529
-0.3125 -0.0703125 1.14753
-0.320312 -0.0625 1.20474
-0.328125 -0.0703125 1.30898
-0.320312 -0.0703125 1.22826
-0.335938 -0.0625 1.37277
-0.34375 -0.0703125 1.47043
-0.335938 -0.0703125 1.38971
-0.34375 -0.125 1.55755
-0.3125 -0.125 1.36599
-0.3125 -0.09375 1.22797
-0.34375 -0.09375 1.51134
-0.328125 -0.125 1.46177
-0.3125 -0.109375 1.29698
-0.328125 -0.09375 1.36966
-0.34375 -0.109375 1.53445
-0.328125 -0.109375 1.41571
-0.335938 -0.125 1.50966
-0.328125 -0.117188 1.43874
-0.335938 -0.109375 1.47508
-0.34375 -0.117188 1.546
-0.335938 -0.117188 1.49237
-0.320312 -0.125 1.41388
-0.3125 -0.117188 1.33148
-0.320312 -0.109375 1.35634
-0.320312 -0.117188 1.38511
-0.3125 -0.101562 1.26247
-0.320312 -0.09375 1.29881
-0.328125 -0.101562 1.39268
-0.320312 -0.101562 1.32758
-0.335938 -0.09375 1.4405
-0.34375 -0.101562 1.5229
-0.335938 -0.101562 1.45779
-0.375 -0.125 1.66355
-0.34375 -0.125 1.55755
-0.34375 -0.09375 1.51134
-0.375 -0.09375 1.6235
-0.375 -0.15625 1.67721
-0.34375 -0.15625 1.60133
-0.34375 -0.125 1.55755
-0.375 -0.125 1.66355
-0.359375 -0.15625 1.63927
-0.34375 -0.140625 1.57944
-0.359375 -0.125 1.61055
-0.375 -0.140625 1.67038
-0.359375 -0.140625 1.62491
-0.34375 -0.15625 1.60133
-0.3125 -0.15625 1.49128
-0.3125 -0.125 1.36599
-0.34375 -0.125 1.55755
-0.328125 -0.15625 1.54631
-0.3125 -0.140625 1.42863
-0.328125 -0.125 1.46177
-0.34375 -0.140625 1.57944
-0.328125 -0.140625 1.50404
-0.335938 -0.15625 1.57382
-0.328125 -0.148438 1.52517
-0.335938 -0.140625 1.54174
-0.34375 -0.148438 1.59038
-0.335938 -0.148438 1.55778
-0.320312 -0.15625 1.51879
-0.3125 -0.148438 1.45996
-0.320312 -0.140625 1.46634
-0.320312 -0.148438 1.49256
-0.3125 -0.132812 1.39731
-0.320312 -0.125 1.41388
-0.328125 -0.132812 1.4829
-0.320312 -0.132812 1.44011
-0.335938 -0.125 1.50966
-0.34375 -0.132812 1.5685
-0.335938 -0.132812 1.5257
-0.34375 -0.1875 1.65681
-0.3125 -0.1875 1.56278
-0.3125 -0.15625 1.49128
-0.34375 -0.15625 1.60133
-0.328125 -0.1875 1.6098
-0.3125 -0.171875 1.52703
-0.328125 -0.15625 1.54631
-0.34375 -0.171875 1.62907
-0.328125 -0.171875 1.57805
-0.375 -0.1875 1.67828
-0.34375 -0.1875 1.65681
-0.34375 -0.15625 1.60133
-0.375 -0.15625 1.67721
-0.359375 -0.1875 1.66755
-0.34375 -0.171875 1.62907
-0.359375 -0.15625 1.63927
-0.375 -0.171875 1.67774
-0.359375 -0.171875 1.65341
[...]
POINT_DATA 13463
SCALARS "density" float 1
LOOKUP_TABLE default
1.09233
1.25724
1.26737
1.11121
1.17478
1.2623
1.18929
1.10177
1.18204
1.25724
1.64337
1.64959
1.26737
1.22256
1.62125
1.64337
1.25724
1.4219
1.63231
1.45031
1.2399
1.4361
1.06714
1.22256
1.25724
1.09233
1.64337
1.66799
1.66075
1.64959
1.65568
1.66437
1.65517
1.64648
1.65542
1.66799
1.57265
1.5605
1.66075
1.67288
1.59706
1.57265
1.66799
1.63497
1.58485
1.62032
1.67043
1.62764
1.62125
1.67288
1.66799
1.64337
1.64706
1.67043
1.65568
1.63231
1.65137
1.57492
1.67589
1.67288
1.62125
1.6254
1.67438
1.64706
1.59809
1.63623
1.60016
1.63082
1.61716
1.5865
1.60866
1.65065
1.67514
1.65531
1.65298
1.67363
1.65997
1.64165
1.65764
1.63416
1.60967
1.62566
1.67589
1.6235
1.59706
1.67288
1.64969
1.61028
1.63497
1.67438
1.64233
1.6766
1.66355
1.6235
1.67589
1.67008
1.64352
1.64969
1.67625
1.65988
1.4883
1.6766
1.67589
1.57492
1.58245
1.67625
1.6254
1.53161
1.60393
1.53538
1.56777
1.51184
1.55157
1.54969
1.50996
1.53077
1.55892
1.59319
1.58585
1.57238
1.62953
1.64009
1.60599
1.63481
1.62201
1.614
1.65307
1.67643
1.65817
1.65562
1.65065
1.64537
1.63803
1.61467
1.63002
1.67607
1.66327
1.66072
1.60016
1.58397
1.58754
1.55327
1.56862
1.61278
1.59932
1.04175
1.16611
1.22256
1.06714
1.10393
1.19433
1.14485
1.05444
1.12439
1.16611
1.57492
1.62125
1.22256
1.09994
1.4883
1.57492
1.16611
1.29412
1.53161
1.37052
1.13303
1.33232
1.02217
1.09994
1.16611
1.04175
1.06106
1.13303
1.10393
1.03196
1.08249
1.04161
1.07178
1.05723
1.02707
1.04942
1.0805
1.11649
1.10776
1.09413
1.14957
1.13502
1.09321
1.12139
1.07284
1.03686
1.06504
1.57265
1.41386
1.40037
1.5605
1.41386
1.06003
1.04179
1.40037
1.45679
1.12072
1.06003
1.41386
1.28876
1.09037
1.23694
1.43533
1.26285
1.59706
1.45679
1.41386
1.57265
1.52693
1.43533
1.49325
1.58485
1.51009
1.06003
0.75257
0.736663
1.04179
0.75257
0.541428
0.528799
0.736663
0.803955
0.580729
0.541428
0.75257
0.692342
0.561079
0.646999
0.778262
0.66967
1.12072
0.803955
0.75257
1.06003
1.22797
0.897183
0.803955
1.12072
1.06258
0.850569
0.962336
1.17434
1.01246
0.897183
0.650858
0.580729
0.803955
0.77402
0.615794
0.692342
0.850569
0.733181
1.03454
0.757645
0.650858
0.897183
0.896092
0.704252
0.77402
0.965861
0.835056
1.36599
1.03454
0.897183
1.22797
1.6235
1.51134
1.45679
1.59706
1.56742
1.48407
1.52693
1.61028
1.54717
1.51134
1.22797
1.12072
1.45679
1.36966
1.17434
1.28876
1.48407
1.32921
1.4405
1.34943
1.40664
1.49771
1.42357
1.29881
1.20115
1.25177
1.27529
1.14753
1.20474
1.30898
1.22826
1.37277
1.47043
1.38971
1.55755
1.36599
1.22797
1.51134
1.46177
1.29698
1.36966
1.53445
1.41571
1.50966
1.43874
1.47508
1.546
1.49237
1.41388
1.33148
1.35634
1.38511
1.26247
1.29881
1.39268
1.32758
1.4405
1.5229
1.45779
1.66355
1.55755
1.51134
1.6235
1.67721
1.60133
1.55755
1.66355
1.63927
1.57944
1.61055
1.67038
1.62491
1.60133
1.49128
1.36599
1.55755
1.54631
1.42863
1.46177
1.57944
1.50404
1.57382
1.52517
1.54174
1.59038
1.55778
1.51879
1.45996
1.46634
1.49256
1.39731
1.41388
1.4829
1.44011
1.50966
1.5685
1.5257
1.65681
1.56278
1.49128
1.60133
1.6098
1.52703
1.54631
1.62907
1.57805
1.67828
1.65681
1.60133
1.67721
1.66755
1.62907
1.63927
1.67774
1.65341
1.67291
1.66048
1.66557
1.67801
1.66924
1.66218
1.64294
1.64124
1.65171
1.6203
1.65824
1.49128
1.20935
1.03454
1.36599
1.35032
1.12194
1.20026
1.42863
1.27529
1.4208
1.3128
1.35196
1.45996
1.38638
1.27983
1.16565
1.19862
1.23922
1.1174
1.28312
1.20935
0.90578
0.757645
1.03454
1.05756
0.831713
0.896092
1.12194
0.976828
1.39362
1.09657
0.90578
1.20935
1.56278
1.39362
1.20935
1.49128
1.4782
1.30148
1.35032
1.52703
1.41426
1.52049
1.44623
1.47064
1.54491
1.49557
1.43591
1.34755
1.35787
1.39689
1.25542
1.27983
1.38229
1.31885
1.4208
1.50916
1.44572
1.61649
1.53193
1.39362
1.56278
1.57421
1.46278
1.4782
1.58964
1.52621
1.59535
1.55021
1.55792
1.60307
1.57664
1.55307
1.49735
1.49449
1.52378
1.4282
1.43591
1.5022
1.4652
1.52049
1.57621
1.53921
1.53193
1.31807
1.09657
1.39362
1.425
1.20732
1.2451
1.46278
1.33505
1.38003
1.49735
1.37154
1.2627
1.27119
1.32136
1.15195
1.29007
1.39891
1.31936
1.4282
1.35913
1.59483
1.50754
1.31807
1.53193
1.55119
1.4128
1.425
1.56338
1.48809
1.51964
1.57911
1.57301
1.53541
1.54937
1.58697
1.56119
1.50387
1.57124
1.52936
1.46017
1.45045
1.48991
1.36544
1.45655
1.38912
1.41099
1.47232
1.43072
1.34175
1.44077
1.52574
1.47847
1.54766
1.5021
1.67626
1.59483
1.53193
1.61649
1.6771
1.67562
1.65681
1.67828
1.67636
1.66622
1.66755
1.67769
1.67195
1.67562
1.61649
1.56278
1.65681
1.64606
1.58964
1.6098
1.66622
1.62793
1.67638
1.67626
1.61649
1.67562
1.67632
1.64638
1.64606
1.676
1.66119
1.67635
1.66876
1.6686
1.67619
1.67247
1.67629
1.66132
1.65378
1.66504
1.63144
1.63128
1.65362
1.64253
1.66084
1.67581
1.66472
1.54005
1.67638
1.67562
1.6771
1.60821
1.676
1.67636
1.60858
1.64229
1.57413
1.62525
1.62543
1.57431
1.59978
1.6423
1.67619
1.65915
1.65072
1.67581
1.67599
1.65933
1.66757
1.67673
1.64284
1.65108
1.01052
1.04398
1.09994
1.02217
1.02725
1.07196
1.06106
1.01634
1.04415
1.01888
1.0357
1.03025
1.01343
1.02456
1.03561
1.05797
1.05806
1.04683
1.08595
1.0805
1.0526
1.06928
1.04161
1.01926
1.03593
1.04398
1.34693
1.4883
1.09994
1.19546
1.41762
1.29412
1.07196
1.24479
1.11972
1.22012
1.15838
1.05797
1.13905
1.2712
1.38228
1.3312
1.3012
1.39121
1.19703
1.0177
1.18958
1.34693
1.04398
1.10364
1.26826
1.19546
1.03084
1.14955
1.06067
1.12659
1.09019
1.02427
1.07543
1.14661
1.22892
1.2089
1.17776
1.3076
1.2712
1.1725
1.24005
1.11972
1.03741
1.10495
1.00449
1.0177
1.04398
1.01052
1.01109
1.03084
1.02725
1.0075
1.01917
1.34693
1.67139
1.6766
1.4883
1.50916
1.674
1.58245
1.41762
1.54581
1.42805
1.52749
1.48171
1.38228
1.45488
1.59028
1.67269
1.6099
1.60009
1.6753
1.62953
1.56413
1.61972
1.53538
1.45296
1.50855
1.67139
1.67721
1.66355
1.6766
1.6743
1.67038
1.67008
1.674
1.67219
1.576
1.67828
1.67721
1.67139
1.62714
1.67774
1.6743
1.6237
1.65072
1.60157
1.63721
1.58879
1.61939
1.63045
1.59985
1.60962
1.61436
1.64396
1.65271
1.67801
1.66423
1.63893
1.65847
1.67575
1.65748
1.67502
1.67099
1.67747
1.67648
1.66999
1.67373
1.66251
1.67284
1.64754
1.65503
1.18958
1.576
1.67139
1.34693
1.38279
1.6237
1.50916
1.26826
1.44598
1.28619
1.41438
1.35712
1.22892
1.32165
1.4794
1.59985
1.53484
1.50712
1.64754
1.59028
1.47757
1.56256
1.42805
1.3076
1.39258
1.06867
1.39368
1.576
1.18958
1.23117
1.48484
1.38279
1.12913
1.30698
1.14992
1.26908
1.21805
1.0989
1.18399
1.31242
1.43926
1.39591
1.35417
1.53042
1.4794
1.34489
1.43765
1.28619
1.15935
1.25212
1.39368
1.6771
1.67828
1.576
1.53539
1.67769
1.62714
1.48484
1.58127
1.46453
1.53305
1.4291
1.50895
1.41139
1.46902
1.49689
1.43926
1.45414
1.44682
1.521
1.49996
1.55833
1.55716
1.49879
1.52856
1.60625
1.62948
1.57082
1.61786
1.60537
1.58809
1.64167
1.65358
1.62396
1.64153
1.65939
1.6774
1.66564
1.64763
1.66251
1.65271
1.64109
1.63993
1.6042
1.62265
1.6655
1.6591
1.67799
1.67189
1.65954
1.66876
1.60157
1.58879
1.54887
1.58239
1.53042
1.53964
1.59518
1.61436
1.56731
1.58576
1.17595
1.54005
1.6771
1.39368
1.358
1.60858
1.53539
1.28481
1.44669
1.26697
1.36575
1.44902
1.52763
1.64284
1.60625
1.49104
1.56694
1.46453
1.33924
1.41514
1.018
1.17595
1.39368
1.06867
1.09697
1.28481
1.23117
1.04333
1.16407
1.05748
1.13052
1.1037
1.03066
1.08059
1.13646
1.23038
1.22444
1.18045
1.33924
1.31242
1.19762
1.26843
1.14992
1.056
1.12681
1.00167
1.00692
1.0177
1.00449
1.00692
1.06867
1.18958
1.0177
1.0378
1.12913
1.10364
1.01231
1.07072
1.02236
1.05426
1.04151
1.00962
1.03194
1.0989
1.05323
1.08378
1.07658
1.04603
1.0649
1.09992
1.15935
1.14661
1.08718
1.12327
1.015
1.05109
1.09541
1.06067
1.01635
1.05588
1.00235
1.018
1.06867
1.00692
1.01017
1.04333
1.0378
1.00464
1.02398
1.00626
1.01431
1.01408
1.03066
1.03366
1.01708
1.02387
1.05323
1.03089
1.02236
1.00578
1.01833
1.00055
1.00235
1.00692
1.00167
0.541428
0.407538
0.398174
0.528799
0.407538
0.325031
0.31872
0.398174
0.436496
0.345163
0.325031
0.407538
0.580729
0.436496
0.407538
0.541428
0.325031
0.282582
0.279436
0.31872
0.282582
0.265729
0.264496
0.279436
0.293476
0.270486
0.265729
0.282582
0.345163
0.293476
0.282582
0.325031
0.382056
0.316393
0.293476
0.345163
0.349224
0.304934
0.31932
0.36361
0.334272
0.316393
0.282226
0.270486
0.293476
0.29931
0.276356
0.281981
0.304934
0.290645
0.357871
0.307941
0.282226
0.316393
0.332906
0.295084
0.29931
0.337132
0.316108
0.440207
0.357871
0.316393
0.382056
0.399039
0.337132
0.349224
0.411132
0.374132
0.650858
0.487496
0.436496
0.580729
0.569177
0.461996
0.508613
0.615794
0.538895
0.487496
0.382056
0.345163
0.436496
0.434776
0.36361
0.39083
0.461996
0.412803
0.565991
0.440207
0.382056
0.487496
0.503099
0.411132
0.434776
0.526743
0.468938
0.757645
0.565991
0.487496
0.650858
0.661818
0.526743
0.569177
0.704252
0.615497
0.265729
0.258029
0.257081
0.264496
0.258029
0.249697
0.247507
0.257081
0.261025
0.254974
0.249697
0.258029
0.270486
0.261025
0.258029
0.265729
0.249697
0.24084
0.238065
0.247507
0.24084
0.238065
0.237676
0.238065
0.249697
0.247507
0.238065
0.24084
0.254974
0.249697
0.24084
0.249697
0.261025
0.258029
0.249697
0.254974
0.258029
0.257081
0.247507
0.249697
0.265729
0.264496
0.257081
0.258029
0.270486
0.265729
0.258029
0.261025
0.282226
0.267358
0.261025
0.270486
0.267358
0.261025
0.254974
0.261025
0.282226
0.270486
0.261025
0.267358
0.307941
0.282226
0.267358
0.282226
0.295084
0.274792
0.274792
0.295084
0.284938
0.357871
0.316393
0.282226
0.307941
0.337132
0.29931
0.295084
0.332906
0.316108
0.316393
0.293476
0.270486
0.282226
0.304934
0.281981
0.276356
0.29931
0.290645
0.382056
0.345163
0.293476
0.316393
0.36361
0.31932
0.304934
0.349224
0.334272
0.440207
0.382056
0.316393
0.357871
0.411132
0.349224
0.337132
0.399039
0.374132
0.293476
0.282582
0.265729
0.270486
0.282582
0.279436
0.264496
0.265729
0.325031
0.31872
0.279436
0.282582
0.345163
0.325031
0.282582
0.293476
0.436496
0.407538
0.325031
0.345163
0.407538
0.398174
0.31872
0.325031
0.541428
0.528799
0.398174
0.407538
0.580729
0.541428
0.407538
0.436496
0.565991
0.487496
0.382056
0.440207
0.526743
0.434776
0.411132
0.503099
0.468938
0.487496
0.436496
0.345163
0.382056
0.461996
0.39083
0.36361
0.434776
0.412803
0.650858
0.580729
0.436496
0.487496
0.615794
0.508613
0.461996
0.569177
0.538895
0.757645
0.650858
0.487496
0.565991
0.704252
0.569177
0.526743
0.661818
0.615497
0.90578
0.679576
0.565991
0.757645
0.792678
0.622784
0.661818
0.831713
0.727248
0.679576
0.526916
0.440207
0.565991
0.603246
0.483562
0.503099
0.622784
0.553173
0.838265
0.65374
0.526916
0.679576
0.746003
0.590328
0.603246
0.758921
0.674625
1.09657
0.838265
0.679576
0.90578
0.96742
0.758921
0.792678
1.00118
0.880049
0.526916
0.42526
0.357871
0.440207
0.476088
0.391565
0.399039
0.483562
0.437564
0.42526
0.357871
0.307941
0.357871
0.391565
0.332906
0.332906
0.391565
0.362236
0.526916
0.440207
0.357871
0.42526
0.483562
0.399039
0.391565
0.476088
0.437564
0.65374
0.526916
0.42526
0.526916
0.590328
0.476088
0.476088
0.590328
0.533208
0.838265
0.679576
0.526916
0.65374
0.758921
0.603246
0.590328
0.746003
0.674625
0.679576
0.565991
0.440207
0.526916
0.622784
0.503099
0.483562
0.603246
0.553173
0.90578
0.757645
0.565991
0.679576
0.831713
0.661818
0.622784
0.792678
0.727248
1.09657
0.90578
0.679576
0.838265
1.00118
0.792678
0.758921
0.96742
0.880049
1.31807
1.05425
0.838265
1.09657
1.05425
0.838265
0.65374
0.838265
0.94626
0.746003
0.746003
0.94626
0.846131
1.31807
1.09657
0.838265
1.05425
1.50754
1.31807
1.05425
1.31807
1.4128
1.18616
1.18616
1.4128
1.29948
1.46017
1.35614
1.36544
1.24282
1.12021
1.12021
1.24282
1.18152
1.25212
1.36544
1.30413
1.59483
1.53193
1.31807
1.50754
1.56338
1.425
1.4128
1.55119
1.48809
1.52574
1.57301
1.57911
1.54456
1.54937
1.58392
1.56424
1.50692
1.51964
1.5621
1.53451
1.54766
1.47847
1.45655
1.5021
1.37154
1.45045
1.39827
1.41099
1.46927
1.43377
1.3448
1.36544
1.43163
1.38821
1.46017
1.52936
1.48991
1.53193
1.39362
1.09657
1.31807
1.46278
1.2451
1.20732
1.425
1.33505
1.49735
1.38003
1.31936
1.39891
1.29007
1.17083
1.15195
1.27119
1.22101
1.2627
1.37154
1.32136
1.61649
1.56278
1.39362
1.53193
1.58964
1.4782
1.46278
1.57421
1.52621
1.60307
1.55021
1.57621
1.5022
1.4282
1.49735
1.67626
1.61649
1.53193
1.59483
1.39362
1.20935
0.90578
1.09657
1.20935
1.03454
0.757645
0.90578
1.12194
0.896092
0.831713
1.05756
0.976828
1.49128
1.36599
1.03454
1.20935
1.42863
1.20026
1.12194
1.35032
1.27529
1.45996
1.35196
1.3128
1.4208
1.38638
1.39731
1.28312
1.23778
1.31754
1.1174
1.07824
1.19862
1.15801
1.16565
1.27983
1.23922
1.56278
1.49128
1.20935
1.39362
1.52703
1.35032
1.30148
1.4782
1.41426
1.54491
1.47064
1.44623
1.52049
1.49557
1.50916
1.4208
1.38229
1.44572
1.27983
1.25542
1.35787
1.31885
1.34755
1.43591
1.39689
1.65681
1.60133
1.49128
1.56278
1.62907
1.54631
1.52703
1.6098
1.57805
1.60133
1.55755
1.36599
1.49128
1.57944
1.46177
1.42863
1.54631
1.50404
1.59038
1.54174
1.52517
1.57382
1.55778
1.5685
1.50966
1.4829
1.5257
1.41388
1.39731
1.46634
1.44011
1.45996
1.51879
1.49256
1.67721
1.66355
1.55755
1.60133
1.67038
1.61055
1.57944
1.63927
1.62491
1.67828
1.67721
1.60133
1.65681
1.67774
1.63927
1.62907
1.66755
1.65341
1.67801
1.66048
1.67747
1.65824
1.64634
1.66557
1.66191
1.6152
1.64124
1.64294
1.66218
1.65171
1.67638
1.67562
1.61649
1.67626
1.676
1.64606
1.64638
1.67632
1.66119
1.67619
1.66876
1.67581
1.65362
1.63144
1.66132
1.67562
1.65681
1.56278
1.61649
1.66622
1.6098
1.58964
1.64606
1.62793
1.6771
1.67828
1.65681
1.67562
1.67769
1.66755
1.66622
1.67636
1.67195
1.54005
1.6771
1.67562
1.67638
1.60858
1.67636
1.676
1.60821
1.64229
1.57431
1.62525
1.55718
1.61673
1.59144
1.62543
1.63377
1.59978
1.61261
1.67673
1.64284
1.67692
1.65108
1.617
1.64696
1.67655
1.65933
1.63386
1.6552
1.67599
1.67581
1.65915
1.66757
1.67619
1.6423
1.65072
1.03454
0.897183
0.650858
0.757645
0.965861
0.77402
0.704252
0.896092
0.835056
0.897183
0.803955
0.580729
0.650858
0.850569
0.692342
0.615794
0.77402
0.733181
1.22797
1.12072
0.803955
0.897183
1.17434
0.962336
0.850569
1.06258
1.01246
1.36599
1.22797
0.897183
1.03454
0.803955
0.75257
0.541428
0.580729
0.778262
0.646999
0.561079
0.692342
0.66967
0.75257
0.736663
0.528799
0.541428
1.06003
1.04179
0.736663
0.75257
1.12072
1.06003
0.75257
0.803955
1.45679
1.41386
1.06003
1.12072
1.43533
1.23694
1.09037
1.28876
1.26285
1.41386
1.40037
1.04179
1.06003
1.57265
1.5605
1.40037
1.41386
1.59706
1.57265
1.41386
1.45679
1.58485
1.49325
1.43533
1.52693
1.51009
1.55755
1.51134
1.22797
1.36599
1.53445
1.36966
1.29698
1.46177
1.41571
1.546
1.47508
1.43874
1.50966
1.49237
1.5229
1.4405
1.39268
1.45779
1.29881
1.26247
1.35634
1.32758
1.33148
1.41388
1.38511
1.51134
1.45679
1.12072
1.22797
1.48407
1.28876
1.17434
1.36966
1.32921
1.49771
1.34943
1.47043
1.30898
1.14753
1.20115
1.6235
1.59706
1.45679
1.51134
1.61028
1.52693
1.48407
1.56742
1.54717
1.66355
1.6235
1.51134
1.55755
1.6766
1.67589
1.6235
1.66355
1.67625
1.64969
1.64352
1.67008
1.65988
1.67589
1.67288
1.59706
1.6235
1.67438
1.63497
1.61028
1.64969
1.64233
1.57492
1.62125
1.67288
1.67589
1.59809
1.64706
1.67438
1.6254
1.63623
1.5865
1.61716
1.63082
1.60016
1.60866
1.60967
1.64165
1.65997
1.67363
1.65531
1.65764
1.67514
1.4883
1.57492
1.67589
1.6766
1.53161
1.6254
1.67625
1.58245
1.60393
1.50996
1.56777
1.59319
1.53538
1.55157
1.55327
1.61467
1.54244
1.6093
1.56409
1.60016
1.62004
1.58397
1.59206
1.65065
1.67607
1.64009
1.64537
1.67643
1.58782
1.63481
1.67652
1.62953
1.63217
1.59856
1.67634
1.67288
1.66799
1.57265
1.59706
1.67043
1.62032
1.58485
1.63497
1.62764
1.66799
1.66075
1.5605
1.57265
1.64337
1.64959
1.66075
1.66799
1.64648
1.65517
1.66437
1.65568
1.65542
1.62125
1.64337
1.66799
1.67288
1.63231
1.65568
1.67043
1.64706
1.65137
1.22256
1.25724
1.64337
1.62125
1.2399
1.45031
1.63231
1.4219
1.4361
1.25724
1.26737
1.64959
1.64337
1.09233
1.11121
1.26737
1.25724
1.06714
1.09233
1.25724
1.22256
1.09994
1.16611
1.57492
1.4883
1.13303
1.37052
1.53161
1.29412
1.33232
1.16611
1.22256
1.62125
1.57492
1.04175
1.06714
1.22256
1.16611
1.05444
1.14485
1.19433
1.10393
1.12439
1.02217
1.04175
1.16611
1.09994
1.03196
1.10393
1.13303
1.06106
1.08249
1.02707
1.07178
1.03686
1.09321
1.14957
1.11649
1.17595
1.39368
1.6771
1.54005
1.28481
1.53539
1.60858
1.358
1.44669
1.23038
1.40235
1.33924
1.49104
1.64284
1.57431
1.39368
1.576
1.67828
1.6771
1.48484
1.62714
1.67769
1.53539
1.58127
1.43926
1.53305
1.55833
1.46453
1.49879
1.41647
1.48166
1.50895
1.46902
1.51592
1.55716
1.5698
1.52856
1.54286
1.54686
1.53042
1.60157
1.6042
1.56731
1.50763
1.54887
1.55018
1.52891
1.58879
1.58444
1.61567
1.58576
1.59273
1.57146
1.65271
1.62948
1.63993
1.64109
1.60537
1.62265
1.6655
1.65358
1.65954
1.67189
1.67799
1.66564
1.66876
1.6774
1.67725
1.54112
1.67718
1.55259
1.67732
1.67754
1.61786
1.62367
1.06867
1.18958
1.576
1.39368
1.12913
1.38279
1.48484
1.23117
1.30698
1.0989
1.21805
1.26908
1.14992
1.18399
1.15935
1.28619
1.34489
1.25212
1.4794
1.53042
1.39591
1.43765
1.43926
1.31242
1.35417
1.018
1.06867
1.39368
1.17595
1.04333
1.23117
1.28481
1.09697
1.16407
1.03066
1.1037
1.13052
1.05748
1.08059
1.056
1.14992
1.19762
1.12681
1.31242
1.33924
1.22444
1.26843
1.23038
1.13646
1.18045
1.576
1.67139
1.67721
1.67828
1.6237
1.6743
1.67774
1.62714
1.65072
1.59985
1.63721
1.63893
1.60157
1.61939
1.64754
1.67284
1.66251
1.65503
1.67747
1.65661
1.66999
1.67761
1.66423
1.66711
1.6684
1.67734
1.67801
1.63304
1.67815
1.64482
1.67788
1.65847
1.66135
1.67139
1.6766
1.66355
1.67721
1.674
1.67008
1.67038
1.6743
1.67219
1.34693
1.4883
1.6766
1.67139
1.41762
1.58245
1.674
1.50916
1.54581
1.38228
1.48171
1.52749
1.42805
1.45488
1.45296
1.53538
1.56413
1.50855
1.62953
1.6753
1.6099
1.61972
1.67269
1.59028
1.60009
1.18958
1.34693
1.67139
1.576
1.26826
1.50916
1.6237
1.38279
1.44598
1.22892
1.35712
1.41438
1.28619
1.32165
1.3076
1.42805
1.47757
1.39258
1.59028
1.53484
1.59985
1.0177
1.04398
1.34693
1.18958
1.03084
1.19546
1.26826
1.10364
1.14955
1.09019
1.06067
1.06051
1.03918
1.07543
1.11987
1.12659
1.08215
1.10101
1.03741
1.11972
1.1725
1.10495
1.2712
1.2089
1.23333
1.17923
1.24005
1.30907
1.3076
1.23858
1.27382
1.22892
1.14661
1.17776
1.04398
1.09994
1.4883
1.34693
1.07196
1.29412
1.41762
1.19546
1.24479
1.05797
1.22012
1.08595
1.19703
1.26946
1.15838
1.1777
1.45296
1.3312
1.38228
1.2712
1.3012
1.01052
1.02217
1.09994
1.04398
1.01634
1.06106
1.07196
1.02725
1.04415
1.03025
1.01888
1.01926
1.0526
1.0805
1.08595
1.05806
1.06928
1.0357
1.05797
1.03561
1.04683
1.00449
1.01052
1.04398
1.0177
1.0075
1.02725
1.03084
1.01109
1.01917
1.00235
1.00692
1.06867
1.018
1.00464
1.0378
1.04333
1.01017
1.02398
1.00349
1.01431
1.01708
1.00626
1.01028
1.00578
1.02236
1.03089
1.01833
1.05323
1.056
1.03366
1.04344
1.03066
1.01408
1.02387
1.00692
1.0177
1.18958
1.06867
1.01231
1.10364
1.12913
1.0378
1.07072
1.00962
1.04151
1.05426
1.02236
1.03194
1.015
1.06067
1.08718
1.05109
1.14661
1.15935
1.09992
1.12327
1.0989
1.05323
1.07658
1.00167
1.00449
1.0177
1.00692
1.00055
1.00167
1.00692
1.00235
1.00017
1.00069
1.00235
1.00055
1.00069
1.00535
1.018
1.00235
1.00302
1.01167
1.01017
1.00152
1.0066
1.00018
1.00139
1.00535
1.00069
1.00004
1.00018
1.00069
1.00017
1.00535
1.04059
1.17595
1.018
1.02297
1.10827
1.09697
1.01167
1.05997
1.01416
1.04147
1.03582
1.00851
1.02499
1.03178
1.07443
1.08412
1.05795
1.14211
1.13646
1.07847
1.11029
1.05748
1.01483
1.04665
1.04059
1.29085
1.54005
1.17595
1.16572
1.41545
1.358
1.10827
1.26186
1.10315
1.21379
1.18506
1.07443
1.14411
1.22829
1.35315
1.33865
1.28347
1.44902
1.30026
1.40351
1.37705
1.47775
1.49454
1.39384
1.43579
1.26697
1.14667
1.22602
1.22146
1.14211
1.18406
1.22346
1.31249
1.00931
1.07209
1.29085
1.04059
1.0407
1.18147
1.16572
1.02495
1.10321
1.025
1.06408
1.01716
1.04454
1.04451
1.01713
1.03084
1.03285
1.08364
1.02893
1.07386
1.03678
1.09343
1.12678
1.07196
1.0564
1.09937
1.04855
1.08566
1.06424
1.11307
1.14234
1.12278
1.15413
1.16191
1.12085
1.13749
1.23616
1.22829
1.13447
1.18531
1.15989
1.21074
1.25957
1.197
1.10315
1.03277
1.08362
1.07385
1.05819
1.02886
1.05135
1.11884
1.10904
1.09634
1.13444
1.09339
1.07187
1.03668
1.06503
1.00139
1.00931
1.04059
1.00535
1.00535
1.02495
1.02297
1.00337
1.01416
1.00031
1.00211
1.00931
1.00139
1.00211
1.01222
1.07209
1.00931