# vtk DataFile Version 2.0

ASCII

DATASET UNSTRUCTURED_GRID
POINTS 29310 float
-0.5 -0.03125 -0.000333014
-0.46875 -0.03125 -0.290825
-0.46875 0 -0.302695
-0.5 0 -0.0157164
-0.484375 -0.03125 -0.155774
-0.46875 -0.015625 -0.296784
-0.484375 0 -0.168626
-0.5 -0.015625 -0.00809061
-0.484375 -0.015625 -0.162239
-0.492188 -0.03125 -0.0808799
-0.492188 -0.015625 -0.0878736
-0.496094 -0.03125 -0.0413524
-0.496094 -0.015625 -0.0486957
-0.498047 -0.03125 -0.0210344
-0.498047 -0.015625 -0.0285764
-0.494141 -0.03125 -0.0612975
-0.494141 -0.015625 -0.0684583
-0.488281 -0.03125 -0.118996
-0.488281 -0.015625 -0.125698
-0.476562 -0.03125 -0.225589
-0.476562 -0.015625 -0.23172
-0.480469 -0.03125 -0.191283
-0.480469 -0.015625 -0.19756
-0.472656 -0.03125 -0.258751
-0.472656 -0.015625 -0.264778
-0.476562 0 -0.237791
-0.480469 0 -0.203767
-0.472656 0 -0.27075
-0.492188 0 -0.0947658
-0.496094 0 -0.0559234
-0.488281 0 -0.132312
-0.46875 -0.03125 -0.290825
-0.4375 -0.03125 -0.807749
-0.4375 0 -0.81926
-0.46875 0 -0.302695
-0.453125 -0.03125 -0.583694
-0.4375 -0.015625 -0.813515
-0.453125 0 -0.594821
-0.46875 -0.015625 -0.296784
-0.453125 -0.015625 -0.589273
-0.460938 -0.03125 -0.447701
-0.460938 -0.015625 -0.453369
-0.464844 -0.03125 -0.372163
-0.464844 -0.015625 -0.377946
-0.466797 -0.03125 -0.33226
-0.466797 -0.015625 -0.338122
-0.462891 -0.03125 -0.410618
-0.462891 -0.015625 -0.416336
-0.457031 -0.03125 -0.518038
-0.457031 -0.015625 -0.523641
-0.458984 -0.03125 -0.483486
-0.458984 -0.015625 -0.489115
-0.455078 -0.03125 -0.551421
-0.455078 -0.015625 -0.557008
-0.445312 -0.03125 -0.702712
-0.445312 -0.015625 -0.708339
-0.449219 -0.03125 -0.64512
-0.449219 -0.015625 -0.650709
-0.451172 -0.03125 -0.614909
-0.451172 -0.015625 -0.62049
-0.447266 -0.03125 -0.674372
-0.447266 -0.015625 -0.679978
-0.441406 -0.03125 -0.75682
-0.441406 -0.015625 -0.762507
-0.445312 0 -0.713941
-0.449219 0 -0.65627
-0.451172 0 -0.626041
-0.447266 0 -0.685555
-0.441406 0 -0.768171
-0.460938 0 -0.458998
-0.464844 0 -0.383686
-0.466797 0 -0.343939
-0.462891 0 -0.422014
-0.457031 0 -0.52921
-0.458984 0 -0.494709
-0.455078 0 -0.562562
-0.46875 -0.0625 -0.246258
-0.4375 -0.0625 -0.76659
-0.4375 -0.03125 -0.807749
-0.46875 -0.03125 -0.290825
-0.453125 -0.0625 -0.542899
-0.4375 -0.046875 -0.787309
-0.453125 -0.03125 -0.583694
-0.46875 -0.046875 -0.268853
-0.453125 -0.046875 -0.563498
-0.460938 -0.0625 -0.405759
-0.460938 -0.046875 -0.426977
-0.464844 -0.0625 -0.329132
-0.464844 -0.046875 -0.350924
-0.466797 -0.0625 -0.288523
-0.466797 -0.046875 -0.310685
-0.462891 -0.0625 -0.368182
-0.462891 -0.046875 -0.389661
-0.457031 -0.0625 -0.47682
-0.457031 -0.046875 -0.497652
-0.458984 -0.0625 -0.441947
-0.458984 -0.046875 -0.462951
-0.455078 -0.0625 -0.510448
-0.455078 -0.046875 -0.531147
-0.445312 -0.0625 -0.662071
-0.445312 -0.046875 -0.682559
-0.449219 -0.0625 -0.604502
-0.449219 -0.046875 -0.624995
-0.451172 -0.0625 -0.574231
-0.451172 -0.046875 -0.594762
-0.447266 -0.0625 -0.633766
-0.447266 -0.046875 -0.654244
-0.441406 -0.0625 -0.715988
-0.441406 -0.046875 -0.736556
-0.443359 -0.0625 -0.689464
-0.443359 -0.046875 -0.709982
-0.439453 -0.0625 -0.741684
-0.439453 -0.046875 -0.76232
-0.445312 -0.03125 -0.702712
-0.449219 -0.03125 -0.64512
-0.451172 -0.03125 -0.614909
-0.447266 -0.03125 -0.674372
-0.441406 -0.03125 -0.75682
-0.443359 -0.03125 -0.730182
-0.460938 -0.03125 -0.447701
-0.464844 -0.03125 -0.372163
-0.466797 -0.03125 -0.33226
-0.462891 -0.03125 -0.410618
-0.457031 -0.03125 -0.518038
-0.458984 -0.03125 -0.483486
-0.455078 -0.03125 -0.551421
-0.5 -0.0625 0.00449611
-0.46875 -0.0625 -0.246258
-0.46875 -0.03125 -0.290825
-0.5 -0.03125 -0.000333014
-0.484375 -0.0625 -0.129391
-0.46875 -0.046875 -0.268853
-0.484375 -0.03125 -0.155774
-0.5 -0.046875 0.00205338
-0.484375 -0.046875 -0.142753
-0.492188 -0.0625 -0.0647994
-0.492188 -0.046875 -0.0729386
-0.496094 -0.0625 -0.0307711
-0.496094 -0.046875 -0.0361252
-0.488281 -0.0625 -0.0976529
-0.488281 -0.046875 -0.108459
-0.476562 -0.0625 -0.189743
-0.476562 -0.046875 -0.207907
-0.480469 -0.0625 -0.160071
-0.480469 -0.046875 -0.175883
-0.472656 -0.0625 -0.218457
-0.472656 -0.046875 -0.23888
-0.476562 -0.03125 -0.225589
-0.480469 -0.03125 -0.191283
-0.472656 -0.03125 -0.258751
-0.492188 -0.03125 -0.0808799
-0.496094 -0.03125 -0.0413524
-0.488281 -0.03125 -0.118996
-0.4375 -0.03125 -0.807749
-0.40625 -0.03125 -0.964006
-0.40625 0 -0.971296
-0.4375 0 -0.81926
-0.40625 -0.03125 -0.964006
-0.375 -0.03125 -1.03486
-0.375 0 -1.0377
-0.40625 0 -0.971296
-0.390625 -0.03125 -0.99839
-0.375 -0.015625 -1.03627
-0.390625 0 -1.00346
-0.40625 -0.015625 -0.967643
-0.390625 -0.015625 -1.00092
-0.40625 -0.0625 -0.935217
-0.375 -0.0625 -1.01476
-0.375 -0.03125 -1.03486
-0.40625 -0.03125 -0.964006
-0.390625 -0.0625 -0.974068
-0.375 -0.046875 -1.02473
-0.390625 -0.03125 -0.99839
-0.40625 -0.046875 -0.94959
-0.390625 -0.046875 -0.986175
-0.4375 -0.0625 -0.76659
-0.40625 -0.0625 -0.935217
-0.40625 -0.03125 -0.964006
-0.4375 -0.03125 -0.807749
-0.421875 -0.0625 -0.852225
-0.40625 -0.046875 -0.94959
-0.421875 -0.03125 -0.886458
-0.4375 -0.046875 -0.787309
-0.421875 -0.046875 -0.869386
-0.4375 -0.09375 -0.693778
-0.40625 -0.09375 -0.893452
-0.40625 -0.0625 -0.935217
-0.4375 -0.0625 -0.76659
-0.421875 -0.09375 -0.796716
-0.40625 -0.078125 -0.914316
-0.421875 -0.0625 -0.852225
-0.4375 -0.078125 -0.730712
-0.421875 -0.078125 -0.824654
-0.429688 -0.09375 -0.746059
-0.429688 -0.078125 -0.778237
-0.414062 -0.09375 -0.845824
-0.414062 -0.078125 -0.870002
-0.414062 -0.0625 -0.894044
-0.429688 -0.0625 -0.809746
-0.40625 -0.09375 -0.893452
-0.375 -0.09375 -0.983796
-0.375 -0.0625 -1.01476
-0.40625 -0.0625 -0.935217
-0.390625 -0.09375 -0.937907
-0.375 -0.078125 -0.999153
-0.390625 -0.0625 -0.974068
-0.40625 -0.078125 -0.914316
-0.390625 -0.078125 -0.955907
-0.40625 -0.125 -0.841954
-0.375 -0.125 -0.942742
-0.375 -0.09375 -0.983796
-0.40625 -0.09375 -0.893452
-0.390625 -0.125 -0.892151
-0.375 -0.109375 -0.963019
-0.390625 -0.09375 -0.937907
-0.40625 -0.109375 -0.867697
-0.390625 -0.109375 -0.914888
-0.4375 -0.125 -0.575098
-0.40625 -0.125 -0.841954
-0.40625 -0.09375 -0.893452
-0.4375 -0.09375 -0.693778
-0.421875 -0.125 -0.716465
-0.40625 -0.109375 -0.867697
-0.421875 -0.09375 -0.796716
-0.4375 -0.109375 -0.636116
-0.421875 -0.109375 -0.757128
-0.429688 -0.125 -0.647948
-0.429688 -0.109375 -0.698017
-0.433594 -0.125 -0.61209
-0.429688 -0.117188 -0.673244
-0.433594 -0.109375 -0.667428
-0.4375 -0.117188 -0.606045
-0.433594 -0.117188 -0.640101
-0.425781 -0.125 -0.682724
-0.421875 -0.117188 -0.736933
-0.425781 -0.109375 -0.727909
-0.425781 -0.117188 -0.70551
-0.414062 -0.125 -0.781022
-0.414062 -0.109375 -0.813631
-0.417969 -0.125 -0.749216
-0.414062 -0.117188 -0.797379
-0.417969 -0.109375 -0.785694
-0.417969 -0.117188 -0.767546
-0.410156 -0.125 -0.811922
-0.410156 -0.109375 -0.840959
-0.414062 -0.09375 -0.845824
-0.414062 -0.101562 -0.829779
-0.417969 -0.09375 -0.821459
-0.421875 -0.101562 -0.777053
-0.417969 -0.101562 -0.803665
-0.410156 -0.09375 -0.869818
-0.429688 -0.09375 -0.746059
-0.4375 -0.101562 -0.665349
-0.429688 -0.101562 -0.722284
-0.5 -0.09375 0.00546114
-0.46875 -0.09375 -0.171922
-0.46875 -0.0625 -0.246258
-0.5 -0.0625 0.00449611
-0.484375 -0.09375 -0.0882261
-0.46875 -0.078125 -0.209968
-0.484375 -0.0625 -0.129391
-0.5 -0.078125 0.00497282
-0.484375 -0.078125 -0.109183
-0.492188 -0.09375 -0.0427399
-0.492188 -0.078125 -0.0539375
-0.496094 -0.09375 -0.0189937
-0.496094 -0.078125 -0.0249628
-0.498047 -0.09375 -0.00685685
-0.498047 -0.078125 -0.0101181
-0.494141 -0.09375 -0.0309535
-0.492188 -0.0859375 -0.0483816
-0.494141 -0.078125 -0.0395674
-0.496094 -0.0859375 -0.0219988
-0.494141 -0.0859375 -0.0352917
-0.488281 -0.09375 -0.0658078
-0.488281 -0.078125 -0.0819967
-0.490234 -0.09375 -0.0543569
-0.488281 -0.0859375 -0.0739705
-0.490234 -0.078125 -0.0680788
-0.490234 -0.0859375 -0.0612731
-0.486328 -0.09375 -0.0770964
-0.484375 -0.0859375 -0.0988008
-0.486328 -0.078125 -0.0956965
-0.486328 -0.0859375 -0.0864784
-0.476562 -0.09375 -0.13122
-0.476562 -0.078125 -0.161096
-0.480469 -0.09375 -0.110022
-0.476562 -0.0859375 -0.146317
-0.480469 -0.078125 -0.135537
-0.480469 -0.0859375 -0.122906
-0.472656 -0.09375 -0.151846
-0.46875 -0.0859375 -0.191173
-0.472656 -0.078125 -0.185895
-0.472656 -0.0859375 -0.169063
-0.476562 -0.0625 -0.189743
-0.476562 -0.0703125 -0.175568
-0.480469 -0.0625 -0.160071
-0.484375 -0.0703125 -0.119378
-0.480469 -0.0703125 -0.147923
-0.46875 -0.0703125 -0.228325
-0.472656 -0.0625 -0.218457
-0.472656 -0.0703125 -0.202356
-0.492188 -0.0625 -0.0647994
-0.496094 -0.0625 -0.0307711
-0.498047 -0.0625 -0.0132966
-0.492188 -0.0703125 -0.0594095
-0.494141 -0.0625 -0.047936
-0.496094 -0.0703125 -0.0278867
-0.494141 -0.0703125 -0.0437817
-0.488281 -0.0625 -0.0976529
-0.488281 -0.0703125 -0.0898897
-0.490234 -0.0625 -0.0813692
-0.490234 -0.0703125 -0.0747766
-0.486328 -0.0625 -0.113658
-0.486328 -0.0703125 -0.104755
-0.46875 -0.09375 -0.171922
-0.4375 -0.09375 -0.693778
-0.4375 -0.0625 -0.76659
-0.46875 -0.0625 -0.246258
-0.453125 -0.09375 -0.471766
-0.4375 -0.078125 -0.730712
-0.453125 -0.0625 -0.542899
-0.46875 -0.078125 -0.209968
-0.453125 -0.078125 -0.507987
-0.460938 -0.09375 -0.333925
-0.460938 -0.078125 -0.37059
-0.464844 -0.09375 -0.256324
-0.464844 -0.078125 -0.293535
-0.466797 -0.09375 -0.215028
-0.464844 -0.0859375 -0.275138
-0.466797 -0.078125 -0.252616
-0.46875 -0.0859375 -0.191173
-0.466797 -0.0859375 -0.23404
-0.462891 -0.09375 -0.295922
-0.460938 -0.0859375 -0.35245
-0.462891 -0.078125 -0.332828
-0.462891 -0.0859375 -0.314575
-0.457031 -0.09375 -0.405515
-0.457031 -0.078125 -0.441865
-0.458984 -0.09375 -0.370427
-0.457031 -0.0859375 -0.423869
-0.458984 -0.078125 -0.406908
-0.458984 -0.0859375 -0.388853
-0.455078 -0.09375 -0.43927
-0.453125 -0.0859375 -0.490045
-0.455078 -0.078125 -0.475534
-0.455078 -0.0859375 -0.457576
-0.445312 -0.09375 -0.590476
-0.445312 -0.078125 -0.626857
-0.449219 -0.09375 -0.533255
[...]
POINT_DATA 29310
SCALARS "velocity_x" float 1
LOOKUP_TABLE default
-0.000333014
-0.290825
-0.302695
-0.0157164
-0.155774
-0.296784
-0.168626
-0.00809061
-0.162239
-0.0808799
-0.0878736
-0.0413524
-0.0486957
-0.0210344
-0.0285764
-0.0612975
-0.0684583
-0.118996
-0.125698
-0.225589
-0.23172
-0.191283
-0.19756
-0.258751
-0.264778
-0.237791
-0.203767
-0.27075
-0.0947658
-0.0559234
-0.132312
-0.290825
-0.807749
-0.81926
-0.302695
-0.583694
-0.813515
-0.594821
-0.296784
-0.589273
-0.447701
-0.453369
-0.372163
-0.377946
-0.33226
-0.338122
-0.410618
-0.416336
-0.518038
-0.523641
-0.483486
-0.489115
-0.551421
-0.557008
-0.702712
-0.708339
-0.64512
-0.650709
-0.614909
-0.62049
-0.674372
-0.679978
-0.75682
-0.762507
-0.713941
-0.65627
-0.626041
-0.685555
-0.768171
-0.458998
-0.383686
-0.343939
-0.422014
-0.52921
-0.494709
-0.562562
-0.246258
-0.76659
-0.807749
-0.290825
-0.542899
-0.787309
-0.583694
-0.268853
-0.563498
-0.405759
-0.426977
-0.329132
-0.350924
-0.288523
-0.310685
-0.368182
-0.389661
-0.47682
-0.497652
-0.441947
-0.462951
-0.510448
-0.531147
-0.662071
-0.682559
-0.604502
-0.624995
-0.574231
-0.594762
-0.633766
-0.654244
-0.715988
-0.736556
-0.689464
-0.709982
-0.741684
-0.76232
-0.702712
-0.64512
-0.614909
-0.674372
-0.75682
-0.730182
-0.447701
-0.372163
-0.33226
-0.410618
-0.518038
-0.483486
-0.551421
0.00449611
-0.246258
-0.290825
-0.000333014
-0.129391
-0.268853
-0.155774
0.00205338
-0.142753
-0.0647994
-0.0729386
-0.0307711
-0.0361252
-0.0976529
-0.108459
-0.189743
-0.207907
-0.160071
-0.175883
-0.218457
-0.23888
-0.225589
-0.191283
-0.258751
-0.0808799
-0.0413524
-0.118996
-0.807749
-0.964006
-0.971296
-0.81926
-0.964006
-1.03486
-1.0377
-0.971296
-0.99839
-1.03627
-1.00346
-0.967643
-1.00092
-0.935217
-1.01476
-1.03486
-0.964006
-0.974068
-1.02473
-0.99839
-0.94959
-0.986175
-0.76659
-0.935217
-0.964006
-0.807749
-0.852225
-0.94959
-0.886458
-0.787309
-0.869386
-0.693778
-0.893452
-0.935217
-0.76659
-0.796716
-0.914316
-0.852225
-0.730712
-0.824654
-0.746059
-0.778237
-0.845824
-0.870002
-0.894044
-0.809746
-0.893452
-0.983796
-1.01476
-0.935217
-0.937907
-0.999153
-0.974068
-0.914316
-0.955907
-0.841954
-0.942742
-0.983796
-0.893452
-0.892151
-0.963019
-0.937907
-0.867697
-0.914888
-0.575098
-0.841954
-0.893452
-0.693778
-0.716465
-0.867697
-0.796716
-0.636116
-0.757128
-0.647948
-0.698017
-0.61209
-0.673244
-0.667428
-0.606045
-0.640101
-0.682724
-0.736933
-0.727909
-0.70551
-0.781022
-0.813631
-0.749216
-0.797379
-0.785694
-0.767546
-0.811922
-0.840959
-0.845824
-0.829779
-0.821459
-0.777053
-0.803665
-0.869818
-0.746059
-0.665349
-0.722284
0.00546114
-0.171922
-0.246258
0.00449611
-0.0882261
-0.209968
-0.129391
0.00497282
-0.109183
-0.0427399
-0.0539375
-0.0189937
-0.0249628
-0.00685685
-0.0101181
-0.0309535
-0.0483816
-0.0395674
-0.0219988
-0.0352917
-0.0658078
-0.0819967
-0.0543569
-0.0739705
-0.0680788
-0.0612731
-0.0770964
-0.0988008
-0.0956965
-0.0864784
-0.13122
-0.161096
-0.110022
-0.146317
-0.135537
-0.122906
-0.151846
-0.191173
-0.185895
-0.169063
-0.189743
-0.175568
-0.160071
-0.119378
-0.147923
-0.228325
-0.218457
-0.202356
-0.0647994
-0.0307711
-0.0132966
-0.0594095
-0.047936
-0.0278867
-0.0437817
-0.0976529
-0.0898897
-0.0813692
-0.0747766
-0.113658
-0.104755
-0.171922
-0.693778
-0.76659
-0.246258
-0.471766
-0.730712
-0.542899
-0.209968
-0.507987
-0.333925
-0.37059
-0.256324
-0.293535
-0.215028
-0.275138
-0.252616
-0.191173
-0.23404
-0.295922
-0.35245
-0.332828
-0.314575
-0.405515
-0.441865
-0.370427
-0.423869
-0.406908
-0.388853
-0.43927
-0.490045
-0.475534
-0.457576
-0.590476
-0.626857
-0.533255
-0.569496
-0.503073
-0.551533
-0.539287
-0.521343
-0.56237
-0.608816
-0.598668
-0.580673
-0.643859
-0.680478
-0.617623
-0.66231
-0.654112
-0.636013
-0.66923
-0.71238
-0.705998
-0.687752
-0.662071
-0.604502
-0.587149
-0.574231
-0.525602
-0.556914
-0.644607
-0.633766
-0.616363
-0.715988
-0.698368
-0.689464
-0.671927
-0.74878
-0.741684
-0.723973
-0.405759
-0.329132
-0.311529
-0.288523
-0.228325
-0.270773
-0.388356
-0.368182
-0.350693
-0.47682
-0.459511
-0.441947
-0.424602
-0.510448
-0.493155
-0.0859961
-0.575098
-0.693778
-0.171922
-0.367241
-0.636116
-0.471766
-0.130214
-0.421002
-0.238024
-0.287361
-0.165223
-0.212097
-0.126465
-0.189006
-0.172036
-0.108432
-0.149587
-0.202377
-0.263055
-0.250505
-0.226795
-0.305151
-0.356777
-0.272255
-0.331341
-0.322757
-0.297875
-0.336789
-0.394513
-0.389502
-0.36353
-0.478423
-0.536044
-0.424842
-0.480596
-0.396572
-0.453123
-0.451346
-0.424356
-0.452108
-0.507649
-0.508811
-0.480869
-0.52839
-0.606045
-0.587762
-0.558503
-0.503835
-0.543556
-0.533512
-0.493142
-0.518781
-0.552131
-0.590683
-0.582667
-0.56751
-0.621187
-0.612339
-0.573237
-0.597609
-0.562345
-0.521948
-0.548031
-0.590476
-0.533255
-0.507296
-0.503073
-0.446743
-0.477574
-0.563642
-0.56237
-0.535967
-0.665349
-0.643859
-0.616203
-0.602083
-0.590371
-0.54994
-0.576457
-0.650835
-0.641182
-0.626862
-0.679662
-0.66923
-0.630127
-0.655303
-0.617623
-0.577152
-0.604092
-0.333925
-0.256324
-0.234527
-0.215028
-0.151368
-0.193841
-0.310975
-0.295922
-0.273538
-0.405515
-0.381492
-0.370427
-0.346931
-0.43927
-0.414738
0.00403737
-0.0859961
-0.171922
0.00546114
-0.0426292
-0.130214
-0.0882261
0.00475601
-0.0658791
-0.0197315
-0.0314056
-0.00795902
-0.0135435
-0.0138728
-0.025612
-0.0225282
-0.0107683
-0.0182299
-0.0312862
-0.0543704
-0.0488459
-0.0401427
-0.0647029
-0.108432
-0.0987801
-0.0819537
-0.0537662
-0.0733824
-0.0683044
-0.0485293
-0.0610764
-0.0754444
-0.097298
-0.095327
-0.085454
-0.119403
-0.114674
-0.090419
-0.105066
-0.0825194
-0.0601534
-0.0754516
-0.151368
-0.13122
-0.0771622
-0.115197
-0.0964217
-0.140867
-0.133507
-0.107039
-0.124154
-0.161718
-0.151846
-0.123257
-0.142737
-0.110022
-0.0427399
-0.0189937
-0.0371143
-0.0309535
-0.0162851
-0.026769
-0.0658078
-0.0573997
-1.03486
-1.02529
-1.02641
-1.0377
-1.02529
-0.871146
-0.866182
-1.02641
-0.959241
-0.868685
-0.95806
-1.02585
-0.958654
-0.994469
-0.994521
-0.977463
-0.977214
-0.918586
-0.917184
-0.939667
-0.938698
-0.895816
-0.89392
-0.91576
-0.937716
-0.891994
-0.994573
-1.0107
-1.01102
-0.976963
-1.02017
-0.886908
-0.871146
-1.02529
-0.962225
-0.879246
-0.959241
-1.02269
-0.960764
-0.992969
-0.993706
-1.00697
-1.00865
-0.927193
-0.922992
-0.907778
-0.901952
-0.918586
-0.895816
-0.994469
-1.01038
-1.01476
-1.02017
-1.02529
-1.03486
-1.01734
-1.02269
-1.03033
-1.02473
-1.02376
-0.871146
-0.657189
-0.650952
-0.866182
-0.782314
-0.654104
-0.77703
-0.868685
-0.779697
-0.830202
-0.827688
-0.851444
-0.848962
-0.807232
-0.804674
-0.725549
-0.722756
-0.755188
-0.752495
-0.69303
-0.690109
-0.719907
-0.749749
-0.687127
-0.825128
-0.846435
-0.802068
-0.657189
-0.49046
-0.486627
-0.650952
-0.587427
-0.488566
-0.582286
-0.654104
-0.584885
-0.624939
-0.622113
-0.64165
-0.638692
-0.606918
-0.604231
-0.54325
-0.541019
-0.566278
-0.563888
-0.518082
-0.516016
-0.538736
-0.561444
-0.513902
-0.619225
-0.635669
-0.601484
-0.676849
-0.502031
-0.49046
-0.657189
-0.603531
-0.496448
-0.587427
-0.667344
-0.595752
-0.642924
-0.634232
-0.660496
-0.651386
-0.623991
-0.615742
-0.55723
-0.550481
-0.581353
-0.574073
-0.530896
-0.524711
-0.54325
-0.566278
-0.518082
-0.624939
-0.64165
-0.606918
-0.886908
-0.676849
-0.657189
-0.871146
-0.799164
-0.667344
-0.782314
-0.879246
-0.790992
-0.846372
-0.83852
-0.867382
-0.859639
-0.823701
-0.815708
-0.74349
-0.734801
-0.772522
-0.764121
-0.711734
-0.702682
-0.725549
-0.755188
-0.69303
-0.830202
-0.851444
-0.807232
-0.910902
-0.712212
-0.676849
-0.886908
-0.82702
-0.6955
-0.799164
-0.899453
-0.813782
-0.87199
-0.859788
-0.892124
-0.880329
-0.850347
-0.837669
-0.774461
-0.75978
-0.801805
-0.787905
-0.744708
-0.729099
-0.74349
-0.772522
-0.711734
-0.846372
-0.853243
-0.867382
-0.893327
-0.87401
-0.823701
-0.712212
-0.524748
-0.502031
-0.676849
-0.633395
-0.514036
-0.603531
-0.6955
-0.619295
-0.675708
-0.660221
-0.694609
-0.668173
-0.678491
-0.704079
-0.686765
-0.655361
-0.626536
-0.640546
-0.648153
-0.583767
-0.571245
-0.609609
-0.596272
-0.555591
-0.543942
-0.540526
-0.519541
-0.529337
-0.549927
-0.535086
-0.55723
-0.564441
-0.581353
-0.611639
-0.589027
-0.530896
-0.557897
-0.537609
-0.544358
-0.551324
-0.50821
-0.516802
-0.523253
-0.642924
-0.651818
-0.660496
-0.686437
-0.669748
-0.623991
-0.632504
-0.761638
-0.565638
-0.524748
-0.712212
-0.678779
-0.546743
-0.633395
-0.738682
-0.657746
-0.72318
-0.701153
-0.743074
-0.712549
-0.720575
-0.750554
-0.732214
-0.701805
-0.668633
-0.680267
-0.691413
-0.626944
-0.606961
-0.653903
-0.617311
-0.633388
-0.64401
-0.59763
-0.556536
-0.578188
-0.588261
-0.583767
-0.595812
-0.609609
-0.646032
-0.621953
-0.536179
-0.555591
-0.56733
-0.675708
-0.688906
-0.694609
-0.725935
-0.708074
-0.655361
-0.668283
-0.930299
-0.761638
-0.712212
-0.910902
-0.857612
-0.738682
-0.82702
-0.921116
-0.843247
-0.896303
-0.884836
-0.877603
-0.850642
-0.864775
-0.890728
-0.871372
-0.813184
-0.795092
-0.836192
-0.804425
-0.820084
-0.828384
-0.788403
-0.750554
-0.768046
-0.77856
-0.774461
-0.785126
-0.801805
-0.835388
-0.811242
-0.725935
-0.744708
-0.756789
-0.87199
-0.903574
-0.878601
-0.892124
-0.916149
-0.898011
-0.850347
-0.85778
-0.983796
-1.00668
-1.02017
-1.01476
-0.99483
-1.0133
-1.01734
-0.999153
-1.00594
-1.00668
-0.910902
-0.886908
-1.02017
-0.963746
-0.899453
-0.962225
-1.0133
-0.963009
-0.98627
-0.989539
-0.996721
-1.00174
-0.938765
-0.933197
-0.925224
-0.916863
-0.927193
-0.94855
-0.945299
-0.907778
-0.992969
-1.00697
-0.976464
-0.930299
-0.910902
-1.00668
-0.954894
-0.921116
-0.963746
-0.991345
-0.959176
-0.966021
-0.975908
-0.960547
-0.957001
-0.967714
-0.970907
-0.964081
-0.943013
-0.940979
-0.949052
-0.950272
-0.936765
-0.925827
-0.93127
-0.942017
-0.934082
-0.938765
-0.951587
-0.916149
-0.925224
-0.939896
-0.928321
-0.98627
-0.983779
-0.981028
-0.996721
-0.998956
-0.990187
-0.961423
-0.975292
-0.971449
-0.942742
-0.976464
-1.00668
-0.983796
-0.959048
-0.991345
-0.99483
-0.963019
-0.976696
-0.887401
-0.931346
-0.976464
-0.942742
-0.908865
-0.953592
-0.959048
-0.914958
-0.933735
-0.931346
-0.927725
-0.930299
-0.976464
-0.9296
-0.928956
-0.954894
-0.953592
-0.941892
-0.930488
-0.935661
-0.947885
-0.942393
-0.939097
-0.92868
-0.928327
-0.93559
-0.932074
-0.943013
-0.938781
-0.939234
-0.949052
-0.9483
-0.943833
-0.932316
-0.929612
-0.936765
-0.934496
-0.966021
-0.964948
-0.956858
-0.877859
-0.891559
-0.927725
-0.931346
-0.884509
-0.909218
-0.9296
-0.904147
-0.906601
-0.809592
-0.877859
-0.931346
-0.887401
-0.843506
-0.904147
-0.908865
-0.848484
-0.875906
-0.826495
-0.859637
-0.862095
-0.829035
-0.844256
-0.860627
-0.890892
-0.889922
-0.875182
-0.91763
-0.919974
-0.892315
-0.904851
-0.89801
-0.867939
-0.880013
-0.927725
-0.812662
-0.761638
-0.930299
-0.8762
-0.789138
-0.857612
-0.928956
-0.867453
-0.90324
-0.899948
-0.890064
-0.871951
-0.884175
-0.901635
-0.887198
-0.846181
-0.8308
-0.861592
-0.838742
-0.849694
-0.855825
-0.829896
-0.801341
-0.810657
-0.820614
-0.813184
-0.822301
-0.836192
-0.862682
-0.843163
-0.775945
-0.788403
-0.79995
-0.896303
-0.914852
-0.913832
-0.877603
-0.812662
-0.626148
-0.565638
-0.761638
-0.73279
-0.598587
-0.678779
-0.789138
-0.708017
-0.7754
-0.751382
-0.794635
-0.763853
-0.770891
-0.801341
-0.783214
-0.754833
-0.720895
-0.730476
-0.74313
-0.683591
-0.657692
-0.709106
-0.671173
-0.683825
-0.696975
-0.656025
-0.612955
-0.629375
-0.643257
-0.626944
-0.643006
-0.653903
-0.694028
-0.66952
-0.58288
-0.59763
-0.614227
-0.72318
-0.775945
-0.737869
-0.744763
-0.757554
-0.782673
-0.764357
-0.716748
-0.701805
-0.730681
-0.743074
-0.76894
-0.750466
-0.842629
-0.69428
-0.626148
-0.812662
-0.777302
-0.66346
-0.73279
-0.828706
-0.756859
-0.811804
-0.794982
-0.795053
-0.767481
-0.776522
-0.8037
-0.786138
-0.738424
-0.713417
-0.758461
-0.726447
-0.73587
-0.747624
-0.717075
-0.679571
-0.689341
-0.703814
-0.683591
-0.69919
-0.709106
-0.745335
-0.723079
-0.645737
-0.656025
-0.673481
-0.7754
-0.812345
-0.785577
-0.794635
-0.820979
-0.803826
-0.754833
-0.766121
-0.891559
-0.842629
-0.812662
-0.927725
-0.868494
-0.828706
-0.8762
-0.909218
-0.872173
-0.880347
-0.891406
-0.88603
-0.885784
-0.90048
-0.900286
-0.893153
-0.874504
-0.870292
-0.881977
-0.878168
-0.855942
-0.835906
-0.851342
-0.853706
-0.846181
-0.861969
-0.848838
-0.861592
-0.87414
-0.861786
-0.840264
-0.820979
-0.829896
-0.835251
-0.90324
-0.897221
-0.915779
-0.918362
-0.908019
-0.890064
-0.885939
-0.836844
-0.829252
-0.842629
-0.891559
-0.83315
-0.835624
-0.868494
-0.863739
-0.850266
-0.835021
-0.841575
-0.85714
-0.850179
-0.845949
-0.831228
-0.832365
-0.843101
-0.83705
-0.839042
-0.855942
-0.859234
-0.849393
-0.880347
-0.87753
-0.868602
-0.829252
-0.743634
-0.69428
-0.842629
-0.789656
-0.721221
-0.777302
-0.835624
-0.783895
-0.81017
-0.810941
-0.819881
-0.823558
-0.800102
-0.786869
-0.797734
-0.810545
-0.798953
-0.767542
-0.732919
-0.754132
-0.761092
-0.738424
-0.769378
-0.746601
-0.758461
-0.780714
-0.764126
-0.7381
-0.708398
-0.717075
-0.728055
-0.811804
-0.827639
-0.795053
-0.776156
-0.740555
-0.743634
-0.829252
-0.758857
-0.741991
-0.789656
-0.80217
-0.773603
-0.767626
-0.766077
-0.788239
-0.789034
-0.777776
-0.749837
-0.74125
-0.758208
-0.753911
-0.767542
-0.766004
-0.762744
-0.77881
-0.781456
-0.772248
-0.750206
-0.742784
-0.755826
-0.752928
-0.81017
-0.815574
-0.799032
-0.768909
-0.776156
-0.829252
-0.836844
-0.772443
-0.80217
-0.83315
-0.80226
-0.802216
-0.735552
-0.808707
-0.877859
-0.809592
-0.772114
-0.843088
-0.843506
-0.772585
-0.807716
-0.808707
-0.836844
-0.891559
-0.877859
-0.822523
-0.863739
-0.884509
-0.843088
-0.853171
-0.717131
-0.768909
-0.836844
-0.808707
-0.743019
-0.80226
-0.822523
-0.762909
-0.782409
-0.730075
-0.762625
-0.772615
-0.740017
-0.751296
-0.785435
-0.79229
-0.819394
-0.829618
-0.802374
-0.810826
-0.815554
-0.785805
-0.794035
-0.548254
-0.717131
-0.808707
-0.735552
-0.636271
-0.762909
-0.772114
-0.645893
-0.705602
-0.593216
-0.6713
-0.676057
-0.598136
-0.6353
-0.570981
-0.614428
-0.616867
-0.573469
-0.594143
-0.614974
-0.653878
-0.653442
-0.634336
-0.68854
-0.690905
-0.655841
-0.672297
-0.661053
-0.622271
-0.639167
-0.67754
-0.740017
-0.734546
-0.706189
-0.657122
-0.691901
-0.68888
-0.673063
-0.785805
-0.790406
-0.739199
-0.762617
-0.753829
-0.691657
-0.715547
-0.695956
-0.703632
-0.669016
-0.682538
0.00187648
-0.020077
-0.0859961
0.00403737
-0.00927904
-0.053897
-0.0426292
0.00296312
-0.0262241
-0.00374708
-0.0178207
-0.0118275
0.00242136
-0.00780968
-0.0147216
-0.0372106
-0.0402424
-0.0276188
-0.0701534
-0.0647029
-0.0344925
-0.052601
-0.0197315
-0.00448241
-0.00795902
-0.019074
-0.0312862
-0.0158011
-0.0252214
-0.020077
-0.392463
-0.575098
-0.0859961
-0.229863
-0.488334
-0.367241
-0.053897
-0.301274
-0.132065
-0.186813
-0.0780311
-0.12293
-0.0495703
-0.100821
-0.0890953
-0.0372106
-0.0696137
-0.105513
-0.159904
-0.155478
-0.130897
-0.182564
-0.266291
-0.246102
-0.214925
-0.157734
-0.198897
-0.187895
-0.146103
-0.17295
-0.206594
-0.248263
-0.241042
-0.223987
-0.283958
-0.274175
-0.230657
-0.257768
-0.217
-0.173471
-0.202576
-0.316007
-0.400875
-0.274257
-0.35942
-0.352746
-0.314352
-0.252406
-0.294525
-0.290714
-0.271763
-0.295448
-0.337966
-0.337243
-0.316582
-0.380384
-0.377207
-0.333755
-0.357446
-0.327449
-0.309272
-0.355341
-0.441624
-0.445979
-0.401764
-0.335962
-0.378838
-0.380916
-0.358709
-0.374166
-0.417362
-0.42199
-0.398381
-0.465274
-0.467484
-0.424137
-0.445018
-0.423788
-0.402603
-0.478423
-0.440504
-0.424842
-0.334899
-0.389543
-0.371337
-0.362706
-0.318252
-0.345256
-0.42091
-0.41546
-0.396541
-0.45967
-0.452108
-0.407374
-0.433978
-0.396572
-0.351226
-0.379807
-0.532771
-0.52839
-0.488142
-0.467308
-0.464717
-0.444487
-0.510826
-0.510814
-0.48941
-0.554189
-0.552131
-0.508497
-0.531716
-0.503835
-0.484495
-0.238024
-0.165223
-0.144388
-0.126465
-0.0701534
-0.108038
-0.212839
-0.202377
-0.179293
-0.305151
-0.276157
-0.261266
-0.245103
-0.199934
-0.231173
-0.306068
-0.290272
-0.336789
-0.290783
-0.321571
-0.272255
-0.0019349
-0.193468
-0.392463
-0.020077
-0.105159
-0.299138
-0.229863
-0.0111216
-0.170001
-0.0556381
-0.0948865
-0.0293417
-0.0541761
-0.0157814
-0.041885
-0.0329543
-0.0065577
-0.0244392
-0.0426244
-0.0755316
-0.0748121
-0.0589108
-0.0808903
-0.138241
-0.133439
-0.107615
-0.0683908
-0.0943679
-0.0917617
-0.0656536
-0.0801672
-0.093144
-0.12187
-0.123104
-0.108266
-0.154281
-0.151959
-0.120637
-0.137666
-0.114422
-0.085275
-0.103179
-0.150969
-0.247994
-0.23774
-0.195502
-0.128501
-0.173533
-0.167507
-0.148236
-0.172609
-0.221175
-0.222306
-0.197827
-0.273969
-0.269174
-0.216896
-0.246078
-0.204723
-0.186331
-0.347204
-0.316007
-0.200518
-0.277856
-0.258053
-0.24027
-0.18541
-0.222698
-0.323538
-0.31345
-0.291623
-0.370169
-0.355341
-0.297168
-0.334681
-0.274257
-0.220676
-0.257452
-0.252406
-0.215333
-0.236706
-0.259322
-0.295448
-0.277597
-0.132065
-0.0780311
-0.0495703
-0.022116
-0.0413302
-0.0349562
-0.0156277
-0.0285827
-0.0436399
-0.0662224
-0.0639263
-0.0538752
-0.113724
-0.105513
-0.0903419
-0.182564
-0.158408
-0.146028
-0.136402
-0.104369
-0.125495
-0.179771
-0.165992
-0.206594
-0.170585
-0.193303
-0.157734
-0.122955
-0.147148
0.000697458
-0.0019349
-0.020077
0.00187648
-0.000627315
-0.0111216
-0.00927904
0.00128873
-0.00498746
-0.392463
-0.782699
-0.841954
-0.575098
-0.608555
-0.812373
-0.716465
-0.488334
-0.663789
-0.506646
-0.579856
-0.451223
-0.543926
-0.535107
-0.441624
-0.494084
-0.422279
-0.472891
-0.468194
-0.417362
-0.445512
-0.479334
-0.52546
-0.51932
-0.49953
-0.562055
-0.557726
-0.514818
-0.538715
-0.511981
-0.465274
-0.490344
-0.559008
-0.636503
-0.622711
-0.591342
-0.533193
-0.575298
-0.567926
-0.550707
-0.700068
-0.741038
-0.655509
-0.720679
-0.703198
-0.679568
-0.742411
-0.777402
-0.721506
-0.759966
-0.759399
-0.740543
-0.781022
-0.761151
-0.749216
-0.690435
-0.726411
-0.811922
-0.647948
-0.532771
-0.614508
-0.597337
-0.574407
-0.510826
-0.554965
-0.653158
-0.682724
-0.631376
-0.61209
-0.554189
-0.593444
-0.782699
-0.887401
-0.942742
-0.841954
-0.641265
-0.809592
-0.887401
-0.782699
-0.728074
-0.848484
-0.835141
-0.714059
-0.782372
-0.685362
-0.755418
-0.748497
-0.678205
-0.717277
-0.769464
-0.829035
-0.815696
-0.79266
-0.867939
-0.861293
-0.808943
-0.838573
-0.808942
-0.748876
-0.779045
-0.193468
-0.641265
-0.782699
-0.392463
-0.448651
-0.714059
-0.608555
-0.299138
-0.532097
-0.330643
-0.423244
-0.264732
-0.378186
-0.363291
-0.247994
-0.315457
-0.229809
-0.290472
-0.28235
-0.221175
-0.256488
-0.298318
-0.354738
-0.347381
-0.323199
-0.401013
-0.393766
-0.33972
-0.370895
-0.331767
-0.273969
-0.307431
-0.391783
-0.491306
-0.479396
-0.436663
-0.361776
-0.414501
-0.407928
-0.385152
-0.420722
-0.470219
-0.464439
-0.44284
-0.458288
-0.451772
-0.430128
-0.551247
-0.628345
-0.50168
-0.590505
-0.581656
-0.54248
-0.597679
-0.678205
-0.672408
-0.635664
-0.700068
-0.664843
-0.655509
-0.571143
-0.619303
-0.748876
-0.742411
-0.707972
-0.506646
-0.466007
-0.451223
-0.347204
-0.408475
-0.386201
-0.37833
-0.323538
-0.355389
-0.444901
-0.437687
-0.416022
-0.430141
-0.422279
-0.370169
-0.400617
-0.559008
-0.520132
-0.046896
-0.419769
-0.641265
-0.193468
-0.25794
-0.537316
-0.448651
-0.124106
-0.358827
-0.159874
-0.250035
-0.105454
-0.206252
-0.189456
-0.0865631
-0.148638
-0.0767211
-0.127354
-0.11819
-0.0670062
-0.0977483
-0.133153
-0.183401
-0.177972
-0.155886
-0.228454
-0.220309
-0.16933
-0.199437
-0.157412
-0.105589
-0.13807
-0.210581
-0.30989
-0.306346
-0.259868
-0.185667
-0.235591
-0.233533
-0.209953
-0.234658
-0.284309
-0.285306
-0.260362
-0.334718
-0.333041
-0.283443
-0.309521
-0.278695
-0.256438
-0.343864
-0.480404
-0.453757
-0.400504
-0.302275
-0.372627
-0.356667
-0.32989
-0.280467
-0.316189
-0.307472
-0.271225
-0.294074
-0.343381
-0.333664
-0.297196
-0.320668
-0.382956
-0.450574
-0.441671
-0.41278
-0.509304
-0.496826
-0.427535
-0.469673
-0.407853
-0.382643
-0.369753
-0.359079
-0.322396
-0.346466
-0.395342
-0.38375
-0.346861
-0.371505
-0.590839
-0.551247
-0.405005
-0.503917
-0.479207
-0.45611
-0.382246
-0.432332
-0.420182
-0.407711
-0.37062
-0.395817
-0.43099
-0.564482
-0.548736
-0.523169
-0.616422
-0.597679
-0.527921
-0.573563
-0.50168
-0.479217