# vtk DataFile Version 2.0

ASCII

DATASET UNSTRUCTURED_GRID
POINTS 31919 float
-0.5 -0.03125 -0.00663556
-0.46875 -0.03125 -0.0206393
-0.46875 0 -2.18317e-15
-0.5 0 -1.61262e-15
-0.484375 -0.03125 -0.0141289
-0.46875 -0.015625 -0.0102783
-0.484375 0 -1.91663e-15
-0.5 -0.015625 -0.00328935
-0.484375 -0.015625 -0.0070211
-0.492188 -0.03125 -0.0105185
-0.492188 -0.015625 -0.0052208
-0.496094 -0.03125 -0.00861298
-0.492188 -0.0234375 -0.00785993
-0.496094 -0.015625 -0.00427235
-0.5 -0.0234375 -0.00495525
-0.496094 -0.0234375 -0.00643403
-0.498047 -0.03125 -0.00763351
-0.496094 -0.0273438 -0.00752133
-0.498047 -0.0234375 -0.00570143
-0.5 -0.0273438 -0.00579359
-0.498047 -0.0273438 -0.00666547
-0.499023 -0.03125 -0.00713688
-0.498047 -0.0292969 -0.00714899
-0.499023 -0.0273438 -0.00623156
-0.5 -0.0292969 -0.00621412
-0.499023 -0.0292969 -0.00668374
-0.49707 -0.03125 -0.00812553
-0.496094 -0.0292969 -0.00806661
-0.49707 -0.0273438 -0.00709537
-0.49707 -0.0292969 -0.00760993
-0.496094 -0.0253906 -0.00697714
-0.49707 -0.0234375 -0.0060694
-0.498047 -0.0253906 -0.00618295
-0.49707 -0.0253906 -0.00658187
-0.499023 -0.0234375 -0.00533006
-0.5 -0.0253906 -0.00537397
-0.499023 -0.0253906 -0.00578033
-0.494141 -0.03125 -0.00957448
-0.492188 -0.0273438 -0.00918677
-0.494141 -0.0234375 -0.00715341
-0.494141 -0.0273438 -0.00836163
-0.495117 -0.03125 -0.00909595
-0.494141 -0.0292969 -0.00896747
-0.495117 -0.0273438 -0.0079434
-0.495117 -0.0292969 -0.00851911
-0.493164 -0.03125 -0.0100486
-0.492188 -0.0292969 -0.00985202
-0.493164 -0.0273438 -0.00877606
-0.493164 -0.0292969 -0.00941176
-0.492188 -0.0253906 -0.00852274
-0.493164 -0.0234375 -0.00750825
-0.494141 -0.0253906 -0.00775694
-0.493164 -0.0253906 -0.00814157
-0.495117 -0.0234375 -0.00679535
-0.495117 -0.0253906 -0.00736881
-0.492188 -0.0195312 -0.00653795
-0.494141 -0.015625 -0.00475078
-0.496094 -0.0195312 -0.00535104
-0.494141 -0.0195312 -0.0059498
-0.494141 -0.0214844 -0.00655103
-0.495117 -0.0195312 -0.00565176
-0.496094 -0.0214844 -0.005892
-0.495117 -0.0214844 -0.006223
-0.492188 -0.0214844 -0.00719833
-0.493164 -0.0195312 -0.00624518
-0.493164 -0.0214844 -0.00687613
-0.492188 -0.0175781 -0.00587877
-0.493164 -0.015625 -0.00498683
-0.494141 -0.0175781 -0.00534972
-0.493164 -0.0175781 -0.00561542
-0.495117 -0.015625 -0.00451263
-0.496094 -0.0175781 -0.00481116
-0.495117 -0.0175781 -0.00508164
-0.498047 -0.015625 -0.00378528
-0.5 -0.0195312 -0.00412051
-0.498047 -0.0195312 -0.00474138
-0.498047 -0.0214844 -0.00522091
-0.499023 -0.0195312 -0.00443236
-0.5 -0.0214844 -0.00453743
-0.499023 -0.0214844 -0.00488074
-0.49707 -0.0195312 -0.00504759
-0.49707 -0.0214844 -0.00555798
-0.49707 -0.015625 -0.00402991
-0.498047 -0.0175781 -0.00426284
-0.49707 -0.0175781 -0.00453823
-0.499023 -0.015625 -0.00353844
-0.5 -0.0175781 -0.00370448
-0.499023 -0.0175781 -0.00398493
-0.488281 -0.03125 -0.0123559
-0.484375 -0.0234375 -0.0105641
-0.488281 -0.015625 -0.00613649
-0.488281 -0.0234375 -0.00923574
-0.490234 -0.03125 -0.0114455
-0.488281 -0.0273438 -0.0107932
-0.490234 -0.0234375 -0.00855393
-0.490234 -0.0273438 -0.00999716
-0.491211 -0.03125 -0.0109841
-0.490234 -0.0292969 -0.0107207
-0.491211 -0.0273438 -0.00959378
-0.491211 -0.0292969 -0.0102883
-0.489258 -0.03125 -0.0119028
-0.488281 -0.0292969 -0.0115739
-0.489258 -0.0273438 -0.010397
-0.489258 -0.0292969 -0.0111492
-0.488281 -0.0253906 -0.0100138
-0.489258 -0.0234375 -0.00889634
-0.490234 -0.0253906 -0.00927491
-0.489258 -0.0253906 -0.009646
-0.491211 -0.0234375 -0.00820847
-0.491211 -0.0253906 -0.00890051
-0.486328 -0.03125 -0.0132503
-0.484375 -0.0273438 -0.0123437
-0.486328 -0.0234375 -0.00990568
-0.486328 -0.0273438 -0.0115753
-0.487305 -0.03125 -0.0128051
-0.486328 -0.0292969 -0.0124121
-0.487305 -0.0273438 -0.011186
-0.487305 -0.0292969 -0.0119949
-0.485352 -0.03125 -0.0136915
-0.484375 -0.0292969 -0.0132356
-0.485352 -0.0273438 -0.0119612
-0.485352 -0.0292969 -0.0128257
-0.486328 -0.0253906 -0.0107398
-0.487305 -0.0234375 -0.00957218
-0.487305 -0.0253906 -0.0103784
-0.484375 -0.0195312 -0.00878986
-0.486328 -0.015625 -0.00658258
-0.488281 -0.0195312 -0.00768351
-0.486328 -0.0195312 -0.00824146
-0.490234 -0.015625 -0.00568263
-0.490234 -0.0195312 -0.00711576
-0.490234 -0.0214844 -0.00783421
-0.491211 -0.0195312 -0.00682813
-0.491211 -0.0214844 -0.00751768
-0.488281 -0.0214844 -0.00845897
-0.489258 -0.0195312 -0.00740088
-0.489258 -0.0214844 -0.00814797
-0.490234 -0.0175781 -0.00639857
-0.491211 -0.015625 -0.00545273
-0.491211 -0.0175781 -0.00613981
-0.476562 -0.03125 -0.0174945
-0.476562 -0.015625 -0.00870316
-0.480469 -0.03125 -0.0158407
-0.476562 -0.0234375 -0.0130877
-0.480469 -0.015625 -0.00787617
-0.480469 -0.0234375 -0.0118473
-0.482422 -0.03125 -0.0149922
-0.480469 -0.0273438 -0.0138412
-0.482422 -0.0234375 -0.0112112
-0.482422 -0.0273438 -0.0130989
-0.478516 -0.03125 -0.0166747
-0.476562 -0.0273438 -0.0152883
-0.478516 -0.0234375 -0.0124727
-0.478516 -0.0273438 -0.0145709
-0.476562 -0.0195312 -0.0108927
-0.478516 -0.015625 -0.00829309
-0.480469 -0.0195312 -0.00985896
-0.478516 -0.0195312 -0.0103801
-0.482422 -0.015625 -0.00745223
-0.482422 -0.0195312 -0.00932895
-0.472656 -0.03125 -0.0190931
-0.46875 -0.0234375 -0.0154484
-0.472656 -0.015625 -0.00950344
-0.472656 -0.0234375 -0.0142874
-0.474609 -0.03125 -0.0183005
-0.472656 -0.0273438 -0.0166876
-0.474609 -0.0234375 -0.0136925
-0.474609 -0.0273438 -0.0159938
-0.470703 -0.03125 -0.0198726
-0.46875 -0.0273438 -0.0180413
-0.470703 -0.0234375 -0.0148726
-0.470703 -0.0273438 -0.01737
-0.46875 -0.0195312 -0.0128607
-0.470703 -0.015625 -0.00989396
-0.472656 -0.0195312 -0.0118927
-0.470703 -0.0195312 -0.0123806
-0.474609 -0.015625 -0.00910656
-0.474609 -0.0195312 -0.0113968
-0.46875 -0.0078125 -0.00512885
-0.476562 0 -2.05484e-15
-0.484375 -0.0078125 -0.00349981
-0.476562 -0.0078125 -0.00434065
-0.476562 -0.0117188 -0.00651916
-0.480469 -0.0078125 -0.00392713
-0.484375 -0.0117188 -0.00525776
-0.480469 -0.0117188 -0.0058989
-0.480469 -0.0136719 -0.00688685
-0.482422 -0.0117188 -0.00558101
-0.484375 -0.0136719 -0.00613875
-0.482422 -0.0136719 -0.00651594
-0.476562 -0.0136719 -0.00761047
-0.478516 -0.0117188 -0.00621158
-0.478516 -0.0136719 -0.00725164
-0.476562 -0.00976562 -0.00542922
-0.478516 -0.0078125 -0.00413557
-0.480469 -0.00976562 -0.00491233
-0.478516 -0.00976562 -0.00517289
-0.482422 -0.0078125 -0.00371524
-0.484375 -0.00976562 -0.00437811
-0.482422 -0.00976562 -0.00464744
-0.46875 -0.0117188 -0.00770098
-0.472656 -0.0078125 -0.00474101
-0.472656 -0.0117188 -0.00711954
-0.472656 -0.0136719 -0.00831082
-0.474609 -0.0117188 -0.00682177
-0.474609 -0.0136719 -0.00796349
-0.46875 -0.0136719 -0.00898898
-0.470703 -0.0117188 -0.00741257
-0.470703 -0.0136719 -0.0086526
-0.46875 -0.00976562 -0.00641427
-0.470703 -0.0078125 -0.00493646
-0.472656 -0.00976562 -0.0059296
-0.470703 -0.00976562 -0.00617386
-0.474609 -0.0078125 -0.00454243
-0.474609 -0.00976562 -0.00568142
-0.46875 -0.00390625 -0.00256186
-0.472656 0 -2.12001e-15
-0.476562 -0.00390625 -0.0021676
-0.472656 -0.00390625 -0.00236784
-0.472656 -0.00585938 -0.00355376
-0.474609 -0.00390625 -0.00226851
-0.476562 -0.00585938 -0.00325344
-0.474609 -0.00585938 -0.0034048
-0.46875 -0.00585938 -0.00384471
-0.470703 -0.00390625 -0.00246561
-0.470703 -0.00585938 -0.00370038
-0.46875 -0.00195312 -0.00128029
-0.470703 0 -2.15184e-15
-0.472656 -0.00195312 -0.00118325
-0.470703 -0.00195312 -0.00123215
-0.474609 0 -2.08628e-15
-0.476562 -0.00195312 -0.00108312
-0.474609 -0.00195312 -0.00113358
-0.480469 0 -1.98613e-15
-0.484375 -0.00390625 -0.00174723
-0.480469 -0.00390625 -0.00196084
-0.480469 -0.00585938 -0.0029433
-0.482422 -0.00390625 -0.00185491
-0.484375 -0.00585938 -0.00262285
-0.482422 -0.00585938 -0.0027844
-0.478516 -0.00390625 -0.00206505
-0.478516 -0.00585938 -0.00309963
-0.478516 0 -2.02147e-15
-0.480469 -0.00195312 -0.000979739
-0.478516 -0.00195312 -0.00103185
-0.482422 0 -1.95166e-15
-0.484375 -0.00195312 -0.00087295
-0.482422 -0.00195312 -0.000926781
-0.492188 0 -1.76978e-15
-0.5 -0.0078125 -0.00163766
-0.492188 -0.0078125 -0.00260089
-0.496094 -0.0078125 -0.00212774
-0.496094 -0.0117188 -0.00319792
-0.498047 -0.0078125 -0.00188487
-0.5 -0.0117188 -0.00246173
-0.498047 -0.0117188 -0.00283312
-0.498047 -0.0136719 -0.00330871
-0.499023 -0.0117188 -0.00264826
-0.5 -0.0136719 -0.0028751
-0.499023 -0.0136719 -0.00309288
-0.496094 -0.0136719 -0.0037346
-0.49707 -0.0117188 -0.00301633
-0.49707 -0.0136719 -0.00352261
-0.498047 -0.00976562 -0.00235851
-0.499023 -0.0078125 -0.00176181
-0.5 -0.00976562 -0.00204926
-0.499023 -0.00976562 -0.00220457
-0.492188 -0.0117188 -0.00390846
-0.494141 -0.0078125 -0.00236638
-0.494141 -0.0117188 -0.00355631
-0.494141 -0.0136719 -0.00415298
-0.495117 -0.0117188 -0.00337791
-0.495117 -0.0136719 -0.00394472
-0.488281 -0.0078125 -0.00305798
-0.488281 -0.0117188 -0.00459466
-0.490234 -0.0117188 -0.00425452
-0.486328 -0.0117188 -0.00492902
-0.488281 -0.0136719 -0.00536493
-0.486328 -0.0136719 -0.00575514
-0.486328 -0.0078125 -0.00328076
-0.488281 -0.00976562 -0.00382568
-0.486328 -0.00976562 -0.00410423
-0.490234 -0.0078125 -0.00283139
-0.492188 -0.00976562 -0.00325408
-0.490234 -0.00976562 -0.00354234
-0.488281 0 -1.84406e-15
-0.492188 -0.00390625 -0.00129808
-0.488281 -0.00390625 -0.00152644
-0.488281 -0.00585938 -0.00229157
-0.490234 -0.00390625 -0.00141323
-0.492188 -0.00585938 -0.0019489
-0.490234 -0.00585938 -0.00212169
-0.486328 -0.00390625 -0.00163776
-0.486328 -0.00585938 -0.0024586
-0.486328 0 -1.88101e-15
-0.488281 -0.00195312 -0.000762582
-0.486328 -0.00195312 -0.000818225
-0.490234 0 -1.80723e-15
-0.492188 -0.00195312 -0.000648452
-0.490234 -0.00195312 -0.000706
-0.496094 0 -1.69294e-15
-0.5 -0.00390625 -0.000817085
-0.496094 -0.00390625 -0.00106177
-0.496094 -0.00585938 -0.00159423
-0.498047 -0.00390625 -0.000940504
-0.5 -0.00585938 -0.00122693
-0.498047 -0.00585938 -0.0014122
-0.494141 -0.00390625 -0.00118095
-0.494141 -0.00585938 -0.0017731
-0.494141 0 -1.73169e-15
[...]
POINT_DATA 31919
SCALARS "velocity_y" float 1
LOOKUP_TABLE default
-0.00663556
-0.0206393
-2.18317e-15
-1.61262e-15
-0.0141289
-0.0102783
-1.91663e-15
-0.00328935
-0.0070211
-0.0105185
-0.0052208
-0.00861298
-0.00785993
-0.00427235
-0.00495525
-0.00643403
-0.00763351
-0.00752133
-0.00570143
-0.00579359
-0.00666547
-0.00713688
-0.00714899
-0.00623156
-0.00621412
-0.00668374
-0.00812553
-0.00806661
-0.00709537
-0.00760993
-0.00697714
-0.0060694
-0.00618295
-0.00658187
-0.00533006
-0.00537397
-0.00578033
-0.00957448
-0.00918677
-0.00715341
-0.00836163
-0.00909595
-0.00896747
-0.0079434
-0.00851911
-0.0100486
-0.00985202
-0.00877606
-0.00941176
-0.00852274
-0.00750825
-0.00775694
-0.00814157
-0.00679535
-0.00736881
-0.00653795
-0.00475078
-0.00535104
-0.0059498
-0.00655103
-0.00565176
-0.005892
-0.006223
-0.00719833
-0.00624518
-0.00687613
-0.00587877
-0.00498683
-0.00534972
-0.00561542
-0.00451263
-0.00481116
-0.00508164
-0.00378528
-0.00412051
-0.00474138
-0.00522091
-0.00443236
-0.00453743
-0.00488074
-0.00504759
-0.00555798
-0.00402991
-0.00426284
-0.00453823
-0.00353844
-0.00370448
-0.00398493
-0.0123559
-0.0105641
-0.00613649
-0.00923574
-0.0114455
-0.0107932
-0.00855393
-0.00999716
-0.0109841
-0.0107207
-0.00959378
-0.0102883
-0.0119028
-0.0115739
-0.010397
-0.0111492
-0.0100138
-0.00889634
-0.00927491
-0.009646
-0.00820847
-0.00890051
-0.0132503
-0.0123437
-0.00990568
-0.0115753
-0.0128051
-0.0124121
-0.011186
-0.0119949
-0.0136915
-0.0132356
-0.0119612
-0.0128257
-0.0107398
-0.00957218
-0.0103784
-0.00878986
-0.00658258
-0.00768351
-0.00824146
-0.00568263
-0.00711576
-0.00783421
-0.00682813
-0.00751768
-0.00845897
-0.00740088
-0.00814797
-0.00639857
-0.00545273
-0.00613981
-0.0174945
-0.00870316
-0.0158407
-0.0130877
-0.00787617
-0.0118473
-0.0149922
-0.0138412
-0.0112112
-0.0130989
-0.0166747
-0.0152883
-0.0124727
-0.0145709
-0.0108927
-0.00829309
-0.00985896
-0.0103801
-0.00745223
-0.00932895
-0.0190931
-0.0154484
-0.00950344
-0.0142874
-0.0183005
-0.0166876
-0.0136925
-0.0159938
-0.0198726
-0.0180413
-0.0148726
-0.01737
-0.0128607
-0.00989396
-0.0118927
-0.0123806
-0.00910656
-0.0113968
-0.00512885
-2.05484e-15
-0.00349981
-0.00434065
-0.00651916
-0.00392713
-0.00525776
-0.0058989
-0.00688685
-0.00558101
-0.00613875
-0.00651594
-0.00761047
-0.00621158
-0.00725164
-0.00542922
-0.00413557
-0.00491233
-0.00517289
-0.00371524
-0.00437811
-0.00464744
-0.00770098
-0.00474101
-0.00711954
-0.00831082
-0.00682177
-0.00796349
-0.00898898
-0.00741257
-0.0086526
-0.00641427
-0.00493646
-0.0059296
-0.00617386
-0.00454243
-0.00568142
-0.00256186
-2.12001e-15
-0.0021676
-0.00236784
-0.00355376
-0.00226851
-0.00325344
-0.0034048
-0.00384471
-0.00246561
-0.00370038
-0.00128029
-2.15184e-15
-0.00118325
-0.00123215
-2.08628e-15
-0.00108312
-0.00113358
-1.98613e-15
-0.00174723
-0.00196084
-0.0029433
-0.00185491
-0.00262285
-0.0027844
-0.00206505
-0.00309963
-2.02147e-15
-0.000979739
-0.00103185
-1.95166e-15
-0.00087295
-0.000926781
-1.76978e-15
-0.00163766
-0.00260089
-0.00212774
-0.00319792
-0.00188487
-0.00246173
-0.00283312
-0.00330871
-0.00264826
-0.0028751
-0.00309288
-0.0037346
-0.00301633
-0.00352261
-0.00235851
-0.00176181
-0.00204926
-0.00220457
-0.00390846
-0.00236638
-0.00355631
-0.00415298
-0.00337791
-0.00394472
-0.00305798
-0.00459466
-0.00425452
-0.00492902
-0.00536493
-0.00575514
-0.00328076
-0.00382568
-0.00410423
-0.00283139
-0.00325408
-0.00354234
-1.84406e-15
-0.00129808
-0.00152644
-0.00229157
-0.00141323
-0.0019489
-0.00212169
-0.00163776
-0.0024586
-1.88101e-15
-0.000762582
-0.000818225
-1.80723e-15
-0.000648452
-0.000706
-1.69294e-15
-0.000817085
-0.00106177
-0.00159423
-0.000940504
-0.00122693
-0.0014122
-0.00118095
-0.0017731
-1.73169e-15
-0.000530364
-0.000589916
-1.65275e-15
-0.000408108
-0.000469771
-0.0206393
-0.0625948
-4.46177e-14
-2.18454e-15
-0.0444096
-0.0312383
-2.61812e-14
-0.0102783
-0.0221424
-0.033372
-0.0166298
-0.027241
-0.0135704
-0.0240024
-0.0203931
-0.0119551
-0.0154484
-0.0179671
-0.0223368
-0.0167197
-0.0214921
-0.0195255
-0.0160871
-0.0180413
-0.0187869
-0.0231735
-0.0209818
-0.0173463
-0.0202571
-0.0256368
-0.0238139
-0.0191914
-0.0224111
-0.0169786
-0.0127702
-0.0149582
-0.0159778
-0.0111246
-0.0128607
-0.0139194
-0.0303621
-0.0249868
-0.0151276
-0.0227315
-0.0288159
-0.0265434
-0.021573
-0.0251911
-0.0318806
-0.0291758
-0.0238692
-0.0278714
-0.0208047
-0.0158854
-0.0189262
-0.0198739
-0.0143561
-0.0179613
-0.0390808
-0.0194802
-0.0362764
-0.0292654
-0.0180798
-0.0271634
-0.034837
-0.0317162
-0.0260846
-0.0304572
-0.0376908
-0.0341693
-0.0282235
-0.0329534
-0.024369
-0.018786
-0.0226179
-0.023501
-0.0173611
-0.0217193
-0.0417903
-0.0332604
-0.0208337
-0.0312965
-0.0404471
-0.0365395
-0.0302896
-0.0353645
-0.0431109
-0.0388311
-0.0322867
-0.0376949
-0.0276975
-0.0214935
-0.0260613
-0.0268862
-0.0201627
-0.0252223
-0.0540696
-0.0269721
-0.0493952
-0.0246344
-0.0469432
-0.036999
-0.0234087
-0.0351601
-0.0456869
-0.0410477
-0.0342181
-0.0399485
-0.0481792
-0.0431931
-0.036087
-0.0421291
-0.0308127
-0.0240265
-0.0292805
-0.0300528
-0.0227807
-0.0284955
-0.0517694
-0.0405051
-0.0258216
-0.0387797
-0.0505918
-0.0452706
-0.0378964
-0.0442401
-0.0529286
-0.0472834
-0.0396492
-0.0462849
-0.0337347
-0.0264014
-0.0322967
-0.0330213
-0.0252328
-0.0315606
-0.0584612
-0.0291693
-0.0562991
-0.0437998
-0.0280874
-0.0421777
-0.055193
-0.0492345
-0.0413479
-0.0482665
-0.0573884
-0.0511267
-0.0429949
-0.0501878
-0.0364807
-0.0286324
-0.0351287
-0.0358098
-0.027534
-0.034437
-0.0605588
-0.0469017
-0.0302191
-0.0453738
-0.0595178
-0.0529625
-0.0445927
-0.0520515
-0.0615843
-0.0547445
-0.0461434
-0.0538601
-0.0390663
-0.0307324
-0.0377927
-0.0384342
-0.0296981
-0.0371416
-3.59663e-14
-0.0134704
-3.12289e-14
-0.0110557
-0.0123015
-0.018464
-0.0116887
-0.0165952
-0.0175447
-0.0202173
-0.0128951
-0.0193544
-0.00673131
-3.36301e-14
-0.00614682
-0.00644364
-2.87504e-14
-0.00552397
-0.00584042
-0.0156044
-4.0421e-14
-0.0145694
-0.0218655
-0.0140282
-0.021054
-0.0234177
-0.0150945
-0.022653
-0.00779853
-4.25459e-14
-0.00728086
-0.00754351
-3.82318e-14
-0.00701025
-1.50241e-14
-0.00830091
-8.83754e-15
-0.00512885
-0.00677275
-0.00596607
-0.0089577
-0.00555139
-0.00770098
-0.00833525
-0.0101685
-0.00637313
-0.00956867
-0.00755052
-0.0113357
-0.00716515
-0.0107574
-0.0124618
-0.00792905
-0.0119038
-0.00414697
-1.1986e-14
-0.00338327
-0.00377195
-0.00566041
-0.00357936
-0.00507723
-0.00537145
-0.00622307
-0.00396112
-0.00594423
-0.00188515
-1.04259e-14
-0.00169086
-0.00178888
-5.57258e-15
-0.00256186
-0.00298018
-0.00447241
-0.00277298
-0.00384471
-0.0041615
-0.00318358
-0.0047776
-7.22002e-15
-0.00148938
-0.00159104
-3.89438e-15
-0.00128029
-0.00138581
-2.07916e-14
-0.00972514
-0.00902534
-0.0135489
-0.00866629
-0.0130101
-0.0145989
-0.00937824
-0.0140784
-0.0104015
-0.0156138
-0.0151106
-2.35313e-14
-0.00485883
-0.00519695
-1.79575e-14
-0.00450905
-0.0336127
-0.118672
-0.0625948
-0.0206393
-0.0821047
-0.0904432
-0.0444096
-0.0270353
-0.0630708
-0.0596864
-0.0463741
-0.0471602
-0.0370727
-0.0405217
-0.0420838
-0.0321513
-0.0303008
-0.0363083
-0.0371021
-0.0384079
-0.0333344
-0.0319509
-0.0352117
-0.0438738
-0.0446138
-0.0392242
-0.0415413
-0.0395702
-0.0346356
-0.0342228
-0.0369224
-0.0296184
-0.0286623
-0.03147
-0.0535436
-0.0529908
-0.0418102
-0.0476406
-0.0503829
-0.0505829
-0.0448888
-0.0476271
-0.0566442
-0.0563287
-0.0503408
-0.0534829
-0.0496727
-0.0441133
-0.0447164
-0.0472176
-0.0394638
-0.0421677
-0.0713027
-0.0550177
-0.065602
-0.063116
-0.0507737
-0.0581458
-0.0626718
-0.0618633
-0.055592
-0.0591216
-0.0684785
-0.0671982
-0.0606533
-0.064555
-0.0590559
-0.0529146
-0.0544493
-0.0567733
-0.0485939
-0.0520828
-0.0768001
-0.0725405
-0.0591142
-0.0679112
-0.0740761
-0.072344
-0.0655349
-0.0697941
-0.0794758
-0.0773107
-0.070246
-0.0748492
-0.0677939
-0.0611095
-0.0635013
-0.0656662
-0.0570839
-0.0612982
-0.101586
-0.0776322
-0.0921752
-0.0705919
-0.0872267
-0.0813346
-0.0668945
-0.0770123
-0.0846879
-0.0821073
-0.0747956
-0.0797297
-0.089722
-0.0867425
-0.0791917
-0.0844446
-0.0759511
-0.0687586
-0.0719414
-0.0739631
-0.0649988
-0.0698853
-0.0969589
-0.0895595
-0.0741692
-0.0855147
-0.0945871
-0.0912244
-0.083442
-0.0890021
-0.0992915
-0.0955603
-0.0875536
-0.0934101
-0.0835835
-0.0759146
-0.0798297
-0.0817218
-0.0723952
-0.0779064
-0.1104
-0.104509
-0.0842361
-0.0972688
-0.106064
-0.0934755
-0.103843
-0.0997573
-0.0915332
-0.0976757
-0.108249
-0.103822
-0.0953872
-0.101806
-0.1146
-0.111579
-0.100945
-0.10776
-0.0974644
-0.087387
-0.0907403
-0.0941539
-0.0809861
-0.0872185
-0.0540696
-0.0658026
-0.0493952
-0.0536943
-0.0599459
-0.0652569
-0.0568719
-0.058371
-0.0618714
-0.0717052
-0.0629212
-0.0685331
-0.0599241
-0.0517694
-0.0546587
-0.0573334
-0.0469432
-0.0490406
-0.0518959
-0.076472
-0.0584612
-0.0713006
-0.0777563
-0.0685943
-0.0747781
-0.0834458
-0.0739253
-0.0806442
-0.0695217
-0.0605588
-0.064869
-0.0672302
-0.0562991
-0.0624347
-0.033372
-0.027241
-0.0321255
-0.0240024
-0.0238151
-0.0280497
-0.0300937
-0.0259528
-0.0254196
-0.0277794
-0.0345912
-0.0301069
-0.0323639
-0.0296755
-0.0256368
-0.0260193
-0.0278646
-0.0223368
-0.0222217
-0.0241387
-0.039835
-0.0303621
-0.0360512
-0.0389219
-0.0341066
-0.0367768
-0.0430949
-0.0379603
-0.0410276
-0.036594
-0.0318806
-0.033198
-0.0349114
-0.0288159
-0.031453
-0.0390808
-0.0470064
-0.0362764
-0.0434844
-0.0471188
-0.041676
-0.045125
-0.0510013
-0.0452609
-0.0490772
-0.043033
-0.0376908
-0.0398703
-0.0414655
-0.034837
-0.0382467
-0.0417903
-0.0504077
-0.0547497
-0.0487218
-0.0528918
-0.052065
-0.0565758
-0.0431109
-0.0460879
-0.0475767
-0.0404471
-0.0445736
-0.00708573
-0.0336127
-0.0206393
-0.00663556
-0.0212495
-0.0270353
-0.0141289
-0.00685802
-0.0176432
-0.0144164
-0.0124435
-0.0108166
-0.00970158
-0.008968
-0.00829286
-0.0126325
-0.0134238
-0.0110849
-0.0102557
-0.0118539
-0.0178919
-0.015089
-0.0161693
-0.0164816
-0.013778
-0.0149661
-0.0195851
-0.0194347
-0.0163773
-0.0179709
-0.027634
-0.022496
-0.024495
-0.0250476
-0.0201108
-0.0222883
-0.0306716
-0.0303008
-0.0248029
-0.027717
-0.0174945
-0.0199785
-0.0158407
-0.0158748
-0.0179618
-0.0238151
-0.0190931
-0.0219285
-0.0105185
-0.00861298
-0.00763351
-0.0114751
-0.00957448
-0.00915404
-0.0103251
-0.0123559
-0.0137139
-0.0625948
-0.080859
-1.05048e-13
-4.46093e-14
-0.0717948
-0.0405175
-7.49283e-14
-0.0312383
-0.0359029
-0.0672119
-0.0538502
-0.0335769
-0.0469017
-0.0503872
-0.0649077
-0.0587977
-0.0486472
-0.0547445
-0.0567747
-0.0695076
-0.0628229
-0.0521215
-0.0608138
-0.0448769
-0.0347415
-0.0419802
-0.0434307
-0.0324092
-0.0390663
-0.0405254
-0.0763437
-0.0607101
-0.0382164
-0.0572912
-0.0740734
-0.0668202
-0.0555735
-0.064825
-0.0786055
-0.07079
-0.0590034
-0.0688085
-0.0506193
-0.0393685
-0.0477566
-0.04919
-0.0370612
-0.0463189
-0.0202808
-9.00154e-14
-0.0179529
-0.0191194
-0.0286707
-0.0185368
-0.0269283
-0.0278005
-0.0304046
-0.0197007
-0.0295387
-0.0101459
-0.00956248
-8.24761e-14
-0.00897678
-0.00926992
-5.97944e-14
-0.0156044
-0.0167812
-0.0251773
-0.0161935
-0.0234177
-0.0242985
-0.0173677
-0.0260538
-6.73677e-14
-0.0083888
-0.00868308
-0.00779853
-0.080859
-0.0908106
-6.13629e-14
-1.05039e-13
-0.0856884
-0.0455813
-8.38807e-14
-0.0405175
-0.0429728
-0.0832387
-0.0643626
-0.0417268
-0.0607101
-0.0625095
-0.0882113
-0.0682397
-0.044257
-0.0662718
-0.0895012
-0.0795361
-0.0672482
-0.0772509
-0.0783848
-0.0569215
-0.044914
-0.0552738
-0.0560913
-0.0228349
-7.28041e-14
-0.0215187
-0.0221665
-0.0342192
-0.0224981
-0.0332213
-0.0337163
-9.46179e-14
-0.0202808
-0.0208904
-0.154683
-0.179044
-0.0908106
-0.080859
-0.166581
-0.135267
-0.0856884
-0.117825
-0.126317
-0.160564
-0.146494
-0.122016
-0.136268
-0.141318
-0.172739
-0.157239
-0.130732
-0.151799
-0.175873
-0.168162
-0.154502
-0.162285
-0.165206
-0.146274
-0.132984
-0.141282
-0.143762
-0.113125
-0.0882113
-0.106048
-0.109537
-0.12851
-0.120151
-0.10778
-0.116194
-0.118159
-0.124217
-0.111318
-0.12217
-0.101989
-0.0895012
-0.0988902
-0.100428
-0.0869405
-0.0958799
-0.0973742
-0.0832387
-0.0993556
-0.102656
-0.118672
-0.154683
-0.080859
-0.0625948
-0.13696
-0.117825
-0.0717948
-0.0904432
-0.104292
-0.127888
-0.120605
-0.0974079
-0.104509
-0.112612
-0.123298
-0.120241
-0.108575
-0.111579
-0.115926
-0.132442
-0.128777
-0.116622
-0.124525
-0.112443
-0.10086
-0.105001
-0.108734
-0.0939357
-0.0974644
-0.101245
-0.14589
-0.136268
-0.111097
-0.128489
-0.141442
-0.137188
-0.12456
-0.132998
-0.150304
-0.132391
-0.12705
-0.114471
-0.119792
-0.123432
-0.107705
-0.116129
-0.0993556
-0.0763437
-0.0880223
-0.0937157
-0.102405
-0.0908757
-0.096152
-0.0992869
-0.108594
-0.0965423
-0.105508
-0.0901107
-0.0786055
-0.0850285
-0.0875749
-0.0740734
-0.0799033
-0.0824713
-0.0672119
-0.076472
-0.0822747
-0.0898324
-0.0793802
-0.0834458
-0.0866476
-0.0851553
-0.0930005
-0.0695076
-0.0747345
-0.0773244
-0.0649077
-0.0695217
-0.0721336
-0.157625
-0.216246
-0.154683
-0.118672
-0.187846
-0.185492
-0.13696
-0.137866
-0.162234
-0.172974
-0.174998
-0.150194
-0.147674
-0.161524
-0.165361
-0.167234
-0.154647
-0.152631
-0.159987
-0.180468
-0.181411
-0.168307
-0.174374
-0.168606
-0.15625
-0.155844
-0.162265
-0.144067
-0.142752
-0.14934
-0.202263
-0.173997
-0.19511
-0.18811
-0.16815
-0.181598
-0.209308
-0.200876
-0.179778
-0.194536
-0.170095
-0.14589
-0.149555
-0.159924
-0.166956
-0.154765
-0.155884
-0.16145
-0.165034
-0.150304
-0.152902
-0.141442
-0.143247
-0.148096
-0.127888
-0.1282
-0.138983
-0.144574
-0.133618
-0.133016
-0.138826
-0.144295
-0.150259
-0.132442
-0.133421
-0.138356
-0.123298
-0.123419
-0.128442
-0.216246
-0.255577
-0.179044
-0.154683
-0.235599
-0.217625
-0.166581
-0.185492
-0.201245
-0.225847
-0.218461
-0.193292
-0.200876
-0.209591
-0.245508
-0.236679
-0.209354
-0.227488
-0.198414
-0.172739
-0.183952
-0.191105
-0.160564
-0.170095
-0.17695
-0.267427
-0.329493
-0.255577
-0.216246
-0.298338
-0.292985
-0.235599
-0.241842
-0.267162
-0.282853
-0.282798
-0.25444
-0.254636
-0.268669
-0.313885
-0.31135
-0.280009
-0.297024
-0.274396
-0.245508
-0.251429
-0.262838
-0.225847
-0.229045
-0.240166
-0.168605
-0.267427
-0.216246
-0.157625
-0.220956
-0.241842
-0.187846
-0.16296
-0.204179
-0.195583
-0.184045
-0.182304
-0.189754
-0.173625
-0.165742
-0.177911
-0.175508
-0.180094
-0.171868
-0.167163
-0.173676
-0.208461
-0.212511
-0.194227
-0.201283
-0.244863
-0.223426
-0.233084
-0.23411
-0.21391
-0.223449
-0.256305
-0.232734
-0.250625
-0.244502
-0.228106
-0.239338
-0.261905
-0.254636
-0.237313
-0.2496
-0.202263
-0.212811
-0.19511
-0.195958
-0.204464
-0.229045
-0.209308
-0.221003
-0.172974
-0.178453
-0.165361
-0.160255
-0.169443
-0.180468
-0.18729
-0.00530698
-0.033494
-0.0336127
-0.00708573
-0.0201943
-0.0335547
-0.0212495
-0.00620706
-0.0207315
-0.0129663
-0.0137024
-0.0144164
-0.033494
-0.157625
-0.118672
-0.0336127
-0.104816
-0.137866
-0.0821047
-0.0335547
-0.0932516
-0.0720288
-0.0657292
-0.0535703
-0.0502942
-0.0437474
-0.0420976
-0.0487109
-0.0519139
-0.0462379
-0.042913
-0.0474603
-0.0629893
-0.058165
-0.0583287
-0.060551
-0.0542691
-0.0562765
-0.0890575
-0.0800065
-0.0807113
-0.0844873
-0.0730043
-0.0688459
-0.0768185
-0.0970867
-0.0989803
-0.0867509
-0.0918693
-0.133053
-0.117063
-0.119442
-0.105573
-0.112263
-0.112447
-0.0995214
-0.105835
-0.126368
-0.124992
-0.111416
-0.118829
-0.145751
-0.127804
-0.139511
-0.136708
-0.122522
-0.130949
-0.151786
-0.147674
-0.132916
-0.14228
-0.101586
-0.0921752
-0.0988163
-0.0872267
-0.0876273
-0.0933197
-0.109262
-0.0969589
-0.104127
-0.1282
-0.1104
-0.119035
-0.0596864
-0.0471602
-0.0405217
-0.0535436
-0.0713027
-0.0756124
-0.065602
-0.0626767
-0.0692662
-0.0768001
-0.0817287
-0.0204803
-0.168605
-0.157625
-0.033494
-0.105656
-0.16296
-0.104816
-0.0271771
-0.105224
-0.0665222
-0.0693551
-0.0444743
-0.0491544
-0.0327363
-0.0384022
-0.0557264
-0.0594631
-0.0868514
-0.0879862
-0.0768888
-0.0788552
-0.0964332
-0.0967693
-0.139327
-0.136101
-0.1231
-0.121219
-0.114538
-0.113368
-0.131357
-0.128792
-0.15446
-0.149982
-0.147023
-0.152189
-0.14316
-0.137691
-0.145064
-0.16165
-0.165742
-0.156578
-0.159078
-0.133053
-0.119442
-0.112263
-0.126368
-0.145751
-0.147837
-0.139511
-0.134556
-0.14131
-0.160255
-0.151786
-0.154149
-0.0720288
-0.0535703
-0.0437474
-0.0629893
-0.0890575
-0.0807113
-0.0970867
-0.00305228
-0.0204803
-0.033494
-0.00530698
-0.0120857
-0.0271771
-0.0201943
-0.00419033
-0.0162203
-0.00765328
-0.010349
-0.0163585
-0.0238783
-0.0218237
-0.0141736
-0.0191251
-0.030381
-0.0270263
-0.0182268
-0.0244566
-0.0129663
-0.00730693
-0.00919297
-0.0908106
-0.0930321
-2.62617e-14
-6.13629e-14
-0.0918623
-0.046739
-4.47614e-14
-0.0455813
-0.0461291
-0.0930321
-0.0841974
2.73082e-15
-2.62815e-14
-0.0892466
-0.0424639
-1.39053e-14
-0.046739
-0.0449112
-0.0912657
-0.0671502
-0.0458868
-0.0699409
-0.0686392
-0.0869164
-0.0634208
-0.0437831
-0.0654301
-0.0213245
-6.2432e-15
-0.0225283
-0.0219737
-2.05192e-14
-0.0234256
-0.0230075
-0.189627
-0.173812
-0.0841974
-0.0930321
-0.18275
-0.130252
-0.0892466
-0.142052
-0.136958
-0.186399
-0.160086
-0.139668
-0.166016
-0.163237
-0.178593
-0.152331
-0.13385
-0.156486
-0.176289
-0.163144
-0.154485
-0.167604
-0.165456
-0.141367
-0.132119
-0.145235
-0.143374
-0.107549
-0.0869164
-0.113349
-0.110667
-0.11898
-0.109169
-0.122328
-0.120719
-0.0912657
-0.117727
-0.115681
-0.179044
-0.189627
-0.0930321
-0.0908106
-0.184092
-0.142052
-0.0918623
-0.135267
-0.138491
-0.181511
-0.161418
-0.13684
-0.157239
-0.15928
-0.186794
-0.166016
-0.140226
-0.163661
-0.117727
-0.115308
-0.0913228
-0.113125
-0.114189
-0.0841974
-0.067571
-1.90271e-15
2.73082e-15
-0.0772943
-0.0341464
8.11541e-16
-0.0424639
-0.0390146
-0.0810157
-0.058245
-0.0408748
-0.0634208
-0.0610357
-0.0728832
-0.0509475
-0.0368075
-0.0549354
-0.0751864
-0.0639317
-0.0566637
-0.0677921
-0.0659475
-0.0703562
-0.0530386
-0.0425693
-0.035542
-0.0458941
-0.0443129
-0.0379602
-0.0486526
-0.0473347
-0.0171649
-4.18239e-16
-0.0196005
-0.0184966
-0.0256784
-0.0178634
-0.027675
-0.0267256
1.85419e-15
-0.0213245
-0.0205304
-0.067571
-0.054288
-1.7157e-15
-1.91213e-15
-0.0620132
-0.0274643
-1.83142e-15
-0.0341464
-0.0313523
-0.0650017
-0.0467678
-0.032855
-0.0509475
-0.0490155
-0.0584937
-0.0409548
-0.0295816
-0.0441199
-0.0564886
-0.0476409
-0.0426111
-0.0513272
-0.0495698
-0.0138137
-1.78023e-15
-0.015764
-0.0148759
-1.87484e-15
-0.0171649
-0.0165175
-0.139214
-0.111405
-0.054288
-0.067571
-0.127551
-0.0838465
-0.0620132
-0.104575
-0.0958916
-0.133818
-0.111985
-0.100559
-0.122176
-0.117462
-0.136613
-0.125706
-0.119904
-0.130764
-0.128326
-0.130806
-0.119832
-0.11483
-0.122883
-0.104006
-0.0983163
-0.10908
-0.106642
-0.10264
-0.113448
-0.111343
-0.120186
-0.0978627
-0.0904004
-0.105545
-0.124023
-0.112927
-0.1089
-0.116525
-0.115996
-0.104691
-0.10188
-0.108998
-0.0909155
-0.0872747
-0.0980372
-0.0946404
-0.093262
-0.101147
-0.0693307
-0.0584937
-0.0792441
-0.0747262
-0.0826313
-0.0770809
-0.0876389
-0.085241
-0.0766527
-0.0721534
-0.0797802
-0.061877
-0.0564886
-0.0666816
-0.0643908
-0.0603283
-0.0707035
-0.0687779
-0.0650017
-0.0863837
-0.0830824
-0.0918943
-0.0847929
-0.0955552
-0.093791
-0.0812382
-0.0898496
-0.0635661
-0.0741195
-0.0724783
-0.0663331
-0.077057
-0.0756415
-0.173812
-0.139214
-0.067571
-0.0841974
-0.15936
-0.104575
-0.0772943
-0.130252
-0.119558
-0.167135
-0.139753
-0.125317
-0.152331
-0.146523
-0.170596
-0.156902
-0.149534
-0.163144
-0.160138
-0.163401
-0.149628
-0.143273
-0.153409
-0.12973
-0.122553
-0.135996
-0.132988
-0.127876
-0.141367
-0.138781
-0.150191
-0.122176
-0.112749
-0.131759
-0.154972
-0.141045
-0.135929
-0.145522
-0.14496
-0.130764
-0.127194
-0.136147
-0.113448
-0.108857
-0.122328
-0.118099
-0.116302
-0.12619
-0.0863837
-0.0728832
-0.0987477
-0.0931337
-0.103019
-0.096064
-0.109231
-0.106261
-0.0955552
-0.0899212
-0.099466
-0.077057
-0.0703562
-0.0830898
-0.0802193
-0.0751864
-0.0881033
-0.0857071
-0.0810157
-0.107549
-0.10349
-0.114483
-0.105596
-0.11898
-0.116815
-0.101215
-0.111963
-0.0792307
-0.0923357
-0.0903052
-0.0826664
-0.0959564
-0.0942139
-0.273079
-0.225339
-0.139214
-0.173812
-0.252924
-0.184637
-0.15936
-0.225712