# vtk DataFile Version 2.0

ASCII

DATASET UNSTRUCTURED_GRID
POINTS 28586 float
0 0.484375 3.38813e-21
0.015625 0.484375 3.46706e-05
0.015625 0.5 4.35347e-05
0 0.5 -3.38813e-21
0.0078125 0.484375 1.73353e-05
0.015625 0.492188 3.91026e-05
0.0078125 0.5 2.17673e-05
0 0.492188 0
0.0078125 0.492188 1.95513e-05
0.00390625 0.484375 8.66764e-06
0.0078125 0.488281 1.84433e-05
0.00390625 0.492188 9.77566e-06
0 0.488281 1.69407e-21
0.00390625 0.488281 9.22165e-06
0.00195312 0.484375 4.33382e-06
0.00390625 0.486328 8.94465e-06
0.00195312 0.488281 4.61083e-06
0 0.486328 2.5411e-21
0.00195312 0.486328 4.47232e-06
0.0078125 0.486328 1.78893e-05
0.00585938 0.488281 1.38325e-05
0.0078125 0.490234 1.89973e-05
0.00585938 0.492188 1.46635e-05
0.00390625 0.490234 9.49865e-06
0.00585938 0.490234 1.4248e-05
0.00195312 0.492188 4.88783e-06
0 0.490234 8.47033e-22
0.00195312 0.490234 4.74933e-06
0.0117188 0.484375 2.60029e-05
0.015625 0.488281 3.68866e-05
0.0117188 0.492188 2.9327e-05
0.0117188 0.488281 2.7665e-05
0.00976562 0.484375 2.16691e-05
0.0117188 0.486328 2.68339e-05
0.00976562 0.488281 2.30541e-05
0.00976562 0.486328 2.23616e-05
0.0136719 0.484375 3.03368e-05
0.015625 0.486328 3.57786e-05
0.0136719 0.488281 3.22758e-05
0.0136719 0.486328 3.13063e-05
0.015625 0.490234 3.79946e-05
0.0117188 0.490234 2.8496e-05
0.015625 0.496094 4.13187e-05
0.0117188 0.5 3.2651e-05
0.0078125 0.496094 2.06593e-05
0.0117188 0.496094 3.0989e-05
0.00976562 0.492188 2.44391e-05
0.0117188 0.494141 3.0158e-05
0.00976562 0.496094 2.58242e-05
0.0078125 0.494141 2.01053e-05
0.00976562 0.494141 2.51317e-05
0.015625 0.494141 4.02106e-05
0.0136719 0.496094 3.61538e-05
0.0136719 0.5 3.80929e-05
0.0117188 0.498047 3.182e-05
0.00976562 0.5 2.72092e-05
0.0078125 0.498047 2.12133e-05
0.00976562 0.498047 2.65167e-05
0.00390625 0.5 1.08837e-05
0 0.496094 -1.69407e-21
0.00390625 0.496094 1.03297e-05
0.00390625 0.494141 1.00527e-05
0.00195312 0.496094 5.16483e-06
0 0.494141 -8.47033e-22
0.00195312 0.494141 5.02633e-06
0.00585938 0.496094 1.54945e-05
0.00585938 0.494141 1.5079e-05
0.00390625 0.498047 1.06067e-05
0.00195312 0.5 5.44184e-06
0 0.498047 -2.5411e-21
0.00195312 0.498047 5.30333e-06
0.015625 0.484375 3.46706e-05
0.03125 0.484375 4.85458e-05
0.03125 0.5 6.21708e-05
0.015625 0.5 4.35347e-05
0.0234375 0.484375 4.16082e-05
0.03125 0.492188 5.53583e-05
0.0234375 0.5 5.28527e-05
0.015625 0.492188 3.91026e-05
0.0234375 0.492188 4.72305e-05
0.0195312 0.484375 3.81394e-05
0.0195312 0.492188 4.31666e-05
0.0175781 0.484375 3.6405e-05
0.0195312 0.488281 4.0653e-05
0.0175781 0.492188 4.11346e-05
0.015625 0.488281 3.68866e-05
0.0175781 0.488281 3.87698e-05
0.0214844 0.484375 3.98738e-05
0.0214844 0.492188 4.51985e-05
0.0273438 0.484375 4.5077e-05
0.0273438 0.492188 5.12944e-05
0.0253906 0.484375 4.33426e-05
0.0253906 0.492188 4.92624e-05
0.0292969 0.484375 4.68114e-05
0.03125 0.488281 5.19521e-05
0.0292969 0.492188 5.33264e-05
0.0273438 0.488281 4.81857e-05
0.0292969 0.488281 5.00689e-05
0.03125 0.496094 5.87646e-05
0.0273438 0.5 5.75118e-05
0.0234375 0.496094 5.00416e-05
0.0273438 0.496094 5.44031e-05
0.0195312 0.5 4.81937e-05
0.015625 0.496094 4.13187e-05
0.0195312 0.496094 4.56801e-05
0.015625 0.46875 2.12913e-05
0.03125 0.46875 3.17111e-05
0.03125 0.484375 4.85458e-05
0.015625 0.484375 3.46706e-05
0.0234375 0.46875 2.65012e-05
0.03125 0.476562 4.01285e-05
0.0234375 0.484375 4.16082e-05
0.015625 0.476562 2.79809e-05
0.0234375 0.476562 3.40547e-05
0.0195312 0.46875 2.38962e-05
0.0195312 0.476562 3.10178e-05
0.0175781 0.46875 2.25937e-05
0.0195312 0.472656 2.7457e-05
0.0175781 0.476562 2.94994e-05
0.015625 0.472656 2.46361e-05
0.0175781 0.472656 2.60466e-05
0.0214844 0.46875 2.51987e-05
0.0234375 0.472656 3.02779e-05
0.0214844 0.476562 3.25362e-05
0.0214844 0.472656 2.88675e-05
0.0273438 0.46875 2.91061e-05
0.0273438 0.476562 3.70916e-05
0.0253906 0.46875 2.78036e-05
0.0273438 0.472656 3.30988e-05
0.0253906 0.476562 3.55731e-05
0.0253906 0.472656 3.16884e-05
0.0292969 0.46875 3.04086e-05
0.03125 0.472656 3.59198e-05
0.0292969 0.476562 3.861e-05
0.0292969 0.472656 3.45093e-05
0.0273438 0.484375 4.5077e-05
0.0253906 0.484375 4.33426e-05
0.03125 0.480469 4.43371e-05
0.0292969 0.484375 4.68114e-05
0.0273438 0.480469 4.10843e-05
0.0292969 0.480469 4.27107e-05
0.0195312 0.484375 3.81394e-05
0.0195312 0.480469 3.45786e-05
0.0175781 0.484375 3.6405e-05
0.015625 0.480469 3.13257e-05
0.0175781 0.480469 3.29522e-05
0.0214844 0.484375 3.98738e-05
0 0.46875 0
0.015625 0.46875 2.12913e-05
0.015625 0.484375 3.46706e-05
0 0.484375 0
0.0078125 0.46875 1.06456e-05
0.015625 0.476562 2.79809e-05
0.0078125 0.484375 1.73353e-05
0 0.476562 0
0.0078125 0.476562 1.39905e-05
0.00390625 0.46875 5.32282e-06
0.0078125 0.472656 1.2318e-05
0.00390625 0.476562 6.99523e-06
0 0.472656 0
0.00390625 0.472656 6.15902e-06
0.00195312 0.46875 2.66141e-06
0.00390625 0.470703 5.74092e-06
0.00195312 0.472656 3.07951e-06
0 0.470703 0
0.00195312 0.470703 2.87046e-06
0.00585938 0.46875 7.98422e-06
0.0078125 0.470703 1.14818e-05
0.00585938 0.472656 9.23853e-06
0.00585938 0.470703 8.61138e-06
0.0078125 0.474609 1.31543e-05
0.00585938 0.476562 1.04928e-05
0.00390625 0.474609 6.57713e-06
0.00585938 0.474609 9.86569e-06
0.00195312 0.476562 3.49761e-06
0 0.474609 0
0.00195312 0.474609 3.28856e-06
0.0117188 0.46875 1.59684e-05
0.015625 0.472656 2.46361e-05
0.0117188 0.476562 2.09857e-05
0.0117188 0.472656 1.84771e-05
0.00976562 0.46875 1.3307e-05
0.00976562 0.472656 1.53976e-05
0.00878906 0.46875 1.19763e-05
0.00976562 0.470703 1.43523e-05
0.00878906 0.472656 1.38578e-05
0.00878906 0.470703 1.29171e-05
0.0107422 0.46875 1.46377e-05
0.0117188 0.470703 1.72228e-05
0.0107422 0.472656 1.69373e-05
0.0107422 0.470703 1.57875e-05
0.0136719 0.46875 1.86299e-05
0.015625 0.470703 2.29637e-05
0.0136719 0.472656 2.15566e-05
0.0136719 0.470703 2.00932e-05
0.015625 0.474609 2.63085e-05
0.0136719 0.476562 2.44833e-05
0.0117188 0.474609 1.97314e-05
0.0136719 0.474609 2.30199e-05
0.00976562 0.476562 1.74881e-05
0.00976562 0.474609 1.64428e-05
0.015625 0.480469 3.13257e-05
0.0117188 0.484375 2.60029e-05
0.0078125 0.480469 1.56629e-05
0.0117188 0.480469 2.34943e-05
0.00976562 0.480469 1.95786e-05
0.00976562 0.478516 1.85333e-05
0.0078125 0.478516 1.48267e-05
0.0117188 0.478516 2.224e-05
0.015625 0.478516 2.96533e-05
0.0136719 0.480469 2.741e-05
0.0136719 0.478516 2.59467e-05
0.015625 0.482422 3.29982e-05
0.0136719 0.484375 3.03368e-05
0.0117188 0.482422 2.47486e-05
0.0136719 0.482422 2.88734e-05
0.00976562 0.484375 2.16691e-05
0.00878906 0.480469 1.76207e-05
0.00976562 0.482422 2.06238e-05
0.00878906 0.484375 1.95022e-05
0.0078125 0.482422 1.64991e-05
0.00878906 0.482422 1.85615e-05
0.0107422 0.480469 2.15365e-05
0.0107422 0.484375 2.3836e-05
0.0107422 0.482422 2.26862e-05
0.00390625 0.484375 8.66764e-06
0 0.480469 0
0.00390625 0.480469 7.83144e-06
0.00390625 0.478516 7.41333e-06
0.00195312 0.480469 3.91572e-06
0 0.478516 0
0.00195312 0.478516 3.70667e-06
0.00585938 0.480469 1.17472e-05
0.00585938 0.478516 1.112e-05
0.00585938 0.484375 1.30015e-05
0.00390625 0.482422 8.24954e-06
0.00585938 0.482422 1.23743e-05
0.00195312 0.484375 4.33382e-06
0 0.482422 0
0.00195312 0.482422 4.12477e-06
0.03125 0.484375 4.85458e-05
0.046875 0.484375 9.49326e-05
0.046875 0.5 0.000109073
0.03125 0.5 6.21708e-05
0.046875 0.484375 9.49326e-05
0.0625 0.484375 0.000263114
0.0625 0.5 0.000281574
0.046875 0.5 0.000109073
0.0546875 0.484375 0.000179023
0.0625 0.492188 0.000272344
0.0546875 0.5 0.000195324
0.046875 0.492188 0.000102003
0.0546875 0.492188 0.000187173
0.046875 0.46875 7.14611e-05
0.0625 0.46875 0.000201506
0.0625 0.484375 0.000263114
0.046875 0.484375 9.49326e-05
0.0546875 0.46875 0.000136484
0.0625 0.476562 0.00023231
0.0546875 0.484375 0.000179023
0.046875 0.476562 8.31968e-05
0.0546875 0.476562 0.000157753
0.0507812 0.46875 0.000103972
0.0546875 0.472656 0.000147119
0.0507812 0.476562 0.000120475
0.046875 0.472656 7.7329e-05
0.0507812 0.472656 0.000112224
0.0507812 0.470703 0.000108098
0.046875 0.470703 7.4395e-05
0.0546875 0.470703 0.000141801
0.0527344 0.472656 0.000129671
0.0546875 0.474609 0.000152436
0.0527344 0.476562 0.000139114
0.0507812 0.474609 0.000116349
0.0527344 0.474609 0.000134393
0.0488281 0.472656 9.47764e-05
0.0488281 0.476562 0.000101836
0.046875 0.474609 8.02629e-05
0.0488281 0.474609 9.83062e-05
0.0585938 0.46875 0.000168995
0.0625 0.472656 0.000216908
0.0585938 0.476562 0.000195032
0.0585938 0.472656 0.000182013
0.0566406 0.46875 0.000152739
0.0585938 0.470703 0.000175504
0.0566406 0.472656 0.000164566
0.0566406 0.470703 0.000158653
0.0625 0.470703 0.000209207
0.0605469 0.472656 0.000199461
0.0625 0.474609 0.000224609
0.0605469 0.476562 0.000213671
0.0585938 0.474609 0.000188523
0.0605469 0.474609 0.000206566
0.0566406 0.476562 0.000176393
0.0625 0.480469 0.000247712
0.0585938 0.484375 0.000221069
0.0546875 0.480469 0.000168388
0.0585938 0.480469 0.00020805
0.0566406 0.480469 0.000188219
0.0605469 0.480469 0.000227881
0.0625 0.482422 0.000255413
0.0605469 0.484375 0.000242091
0.0585938 0.482422 0.000214559
0.0605469 0.482422 0.000234986
0.0566406 0.484375 0.000200046
0.0546875 0.482422 0.000173706
0.0566406 0.482422 0.000194133
0.0507812 0.484375 0.000136978
0.046875 0.480469 8.90647e-05
0.0507812 0.480469 0.000128727
0.0507812 0.478516 0.000124601
0.0488281 0.480469 0.000108896
0.046875 0.478516 8.61308e-05
0.0488281 0.478516 0.000105366
0.0546875 0.478516 0.000163071
0.0527344 0.480469 0.000148557
0.0527344 0.478516 0.000143836
0.0527344 0.484375 0.000158001
0.0507812 0.482422 0.000132852
0.0527344 0.482422 0.000153279
0.0488281 0.484375 0.000115955
0.046875 0.482422 9.19986e-05
0.0488281 0.482422 0.000112425
0.03125 0.46875 3.17111e-05
0.046875 0.46875 7.14611e-05
0.046875 0.484375 9.49326e-05
0.03125 0.484375 4.85458e-05
0.0390625 0.46875 5.15861e-05
0.046875 0.476562 8.31968e-05
0.0390625 0.484375 7.17392e-05
0.03125 0.476562 4.01285e-05
0.0390625 0.476562 6.16626e-05
0.03125 0.453125 1.52181e-05
[...]
POINT_DATA 28586
SCALARS "solution" float 1
LOOKUP_TABLE default
3.38813e-21
3.46706e-05
4.35347e-05
-3.38813e-21
1.73353e-05
3.91026e-05
2.17673e-05
0
1.95513e-05
8.66764e-06
1.84433e-05
9.77566e-06
1.69407e-21
9.22165e-06
4.33382e-06
8.94465e-06
4.61083e-06
2.5411e-21
4.47232e-06
1.78893e-05
1.38325e-05
1.89973e-05
1.46635e-05
9.49865e-06
1.4248e-05
4.88783e-06
8.47033e-22
4.74933e-06
2.60029e-05
3.68866e-05
2.9327e-05
2.7665e-05
2.16691e-05
2.68339e-05
2.30541e-05
2.23616e-05
3.03368e-05
3.57786e-05
3.22758e-05
3.13063e-05
3.79946e-05
2.8496e-05
4.13187e-05
3.2651e-05
2.06593e-05
3.0989e-05
2.44391e-05
3.0158e-05
2.58242e-05
2.01053e-05
2.51317e-05
4.02106e-05
3.61538e-05
3.80929e-05
3.182e-05
2.72092e-05
2.12133e-05
2.65167e-05
1.08837e-05
-1.69407e-21
1.03297e-05
1.00527e-05
5.16483e-06
-8.47033e-22
5.02633e-06
1.54945e-05
1.5079e-05
1.06067e-05
5.44184e-06
-2.5411e-21
5.30333e-06
3.46706e-05
4.85458e-05
6.21708e-05
4.35347e-05
4.16082e-05
5.53583e-05
5.28527e-05
3.91026e-05
4.72305e-05
3.81394e-05
4.31666e-05
3.6405e-05
4.0653e-05
4.11346e-05
3.68866e-05
3.87698e-05
3.98738e-05
4.51985e-05
4.5077e-05
5.12944e-05
4.33426e-05
4.92624e-05
4.68114e-05
5.19521e-05
5.33264e-05
4.81857e-05
5.00689e-05
5.87646e-05
5.75118e-05
5.00416e-05
5.44031e-05
4.81937e-05
4.13187e-05
4.56801e-05
2.12913e-05
3.17111e-05
4.85458e-05
3.46706e-05
2.65012e-05
4.01285e-05
4.16082e-05
2.79809e-05
3.40547e-05
2.38962e-05
3.10178e-05
2.25937e-05
2.7457e-05
2.94994e-05
2.46361e-05
2.60466e-05
2.51987e-05
3.02779e-05
3.25362e-05
2.88675e-05
2.91061e-05
3.70916e-05
2.78036e-05
3.30988e-05
3.55731e-05
3.16884e-05
3.04086e-05
3.59198e-05
3.861e-05
3.45093e-05
4.5077e-05
4.33426e-05
4.43371e-05
4.68114e-05
4.10843e-05
4.27107e-05
3.81394e-05
3.45786e-05
3.6405e-05
3.13257e-05
3.29522e-05
3.98738e-05
0
2.12913e-05
3.46706e-05
0
1.06456e-05
2.79809e-05
1.73353e-05
0
1.39905e-05
5.32282e-06
1.2318e-05
6.99523e-06
0
6.15902e-06
2.66141e-06
5.74092e-06
3.07951e-06
0
2.87046e-06
7.98422e-06
1.14818e-05
9.23853e-06
8.61138e-06
1.31543e-05
1.04928e-05
6.57713e-06
9.86569e-06
3.49761e-06
0
3.28856e-06
1.59684e-05
2.46361e-05
2.09857e-05
1.84771e-05
1.3307e-05
1.53976e-05
1.19763e-05
1.43523e-05
1.38578e-05
1.29171e-05
1.46377e-05
1.72228e-05
1.69373e-05
1.57875e-05
1.86299e-05
2.29637e-05
2.15566e-05
2.00932e-05
2.63085e-05
2.44833e-05
1.97314e-05
2.30199e-05
1.74881e-05
1.64428e-05
3.13257e-05
2.60029e-05
1.56629e-05
2.34943e-05
1.95786e-05
1.85333e-05
1.48267e-05
2.224e-05
2.96533e-05
2.741e-05
2.59467e-05
3.29982e-05
3.03368e-05
2.47486e-05
2.88734e-05
2.16691e-05
1.76207e-05
2.06238e-05
1.95022e-05
1.64991e-05
1.85615e-05
2.15365e-05
2.3836e-05
2.26862e-05
8.66764e-06
0
7.83144e-06
7.41333e-06
3.91572e-06
0
3.70667e-06
1.17472e-05
1.112e-05
1.30015e-05
8.24954e-06
1.23743e-05
4.33382e-06
0
4.12477e-06
4.85458e-05
9.49326e-05
0.000109073
6.21708e-05
9.49326e-05
0.000263114
0.000281574
0.000109073
0.000179023
0.000272344
0.000195324
0.000102003
0.000187173
7.14611e-05
0.000201506
0.000263114
9.49326e-05
0.000136484
0.00023231
0.000179023
8.31968e-05
0.000157753
0.000103972
0.000147119
0.000120475
7.7329e-05
0.000112224
0.000108098
7.4395e-05
0.000141801
0.000129671
0.000152436
0.000139114
0.000116349
0.000134393
9.47764e-05
0.000101836
8.02629e-05
9.83062e-05
0.000168995
0.000216908
0.000195032
0.000182013
0.000152739
0.000175504
0.000164566
0.000158653
0.000209207
0.000199461
0.000224609
0.000213671
0.000188523
0.000206566
0.000176393
0.000247712
0.000221069
0.000168388
0.00020805
0.000188219
0.000227881
0.000255413
0.000242091
0.000214559
0.000234986
0.000200046
0.000173706
0.000194133
0.000136978
8.90647e-05
0.000128727
0.000124601
0.000108896
8.61308e-05
0.000105366
0.000163071
0.000148557
0.000143836
0.000158001
0.000132852
0.000153279
0.000115955
9.19986e-05
0.000112425
3.17111e-05
7.14611e-05
9.49326e-05
4.85458e-05
5.15861e-05
8.31968e-05
7.17392e-05
4.01285e-05
6.16626e-05
1.52181e-05
4.7352e-05
7.14611e-05
3.17111e-05
3.1285e-05
5.94065e-05
5.15861e-05
2.34646e-05
4.14356e-05
2.32516e-05
3.63603e-05
3.24501e-05
1.93413e-05
2.78508e-05
3.93185e-05
5.33793e-05
5.0421e-05
4.48698e-05
6.54338e-05
6.15236e-05
4.65108e-05
5.59723e-05
4.16486e-05
2.75878e-05
3.70493e-05
4.7352e-05
0.000127005
0.000201506
7.14611e-05
8.71783e-05
0.000164255
0.000136484
5.94065e-05
0.000111831
6.72651e-05
9.95046e-05
8.56188e-05
5.33793e-05
7.6442e-05
7.18535e-05
5.03656e-05
9.33415e-05
0.000105668
8.10304e-05
6.49106e-05
7.25126e-05
5.63929e-05
6.87116e-05
0.000107091
0.00014563
0.000138043
0.000122567
0.000114829
0.000117048
0.000136317
0.000134099
0.000125573
0.000154943
0.000151149
0.000130305
0.000142624
0.000168995
0.000124937
0.000152739
0.000118384
0.000138838
0.000144611
0.000124157
0.000131498
0.000153519
0.000182881
0.000185251
0.0001682
0.000103972
9.47956e-05
8.77167e-05
6.54338e-05
8.01147e-05
9.87249e-05
0.000120228
9.21718e-05
0.000109476
0.0001121
0.000102136
0.000105278
0.000128356
2.23214e-05
7.4481e-05
0.000127005
4.7352e-05
4.84012e-05
0.000100743
8.71783e-05
3.48367e-05
6.77898e-05
3.53613e-05
5.80955e-05
5.13132e-05
2.85791e-05
4.33373e-05
6.14411e-05
8.76119e-05
8.42663e-05
7.28537e-05
0.000107091
7.6028e-05
9.56789e-05
9.71349e-05
7.7484e-05
8.65815e-05
9.25046e-05
0.000117048
6.72651e-05
4.10943e-05
5.92892e-05
5.20338e-06
2.23214e-05
4.7352e-05
1.52181e-05
1.37624e-05
3.48367e-05
3.1285e-05
1.02107e-05
2.25237e-05
9.4829e-06
1.81431e-05
1.63672e-05
7.70706e-06
1.29251e-05
1.80419e-05
2.85791e-05
2.86802e-05
2.33611e-05
4.10943e-05
3.93185e-05
2.69044e-05
3.39994e-05
2.32516e-05
1.27144e-05
1.98094e-05
1.69407e-21
1.02878e-05
2.12913e-05
-1.69407e-21
5.14392e-06
1.57896e-05
1.06456e-05
0
7.89478e-06
2.57196e-06
6.51935e-06
3.94739e-06
8.47033e-22
3.25967e-06
7.71588e-06
1.30387e-05
1.18422e-05
9.77902e-06
1.85404e-05
1.59684e-05
9.2702e-06
1.39053e-05
5.32282e-06
-8.47033e-22
4.6351e-06
1.02878e-05
1.52181e-05
3.17111e-05
2.12913e-05
1.2753e-05
2.34646e-05
2.65012e-05
1.57896e-05
1.96271e-05
3.36681e-06
5.20338e-06
1.52181e-05
1.02878e-05
4.2851e-06
1.02107e-05
1.2753e-05
6.82733e-06
8.51903e-06
-8.47033e-22
3.36681e-06
1.02878e-05
8.47033e-22
1.68341e-06
6.82733e-06
5.14392e-06
0
3.41366e-06
0.000263114
0.000255624
0.000305901
0.000281574
0.000259369
0.000280763
0.000293738
0.000272344
0.000276553
0.000261241
0.000274449
0.000262178
0.000273396
0.000262646
0.000267787
0.00027287
0.000267729
0.000267758
0.00026171
0.000273923
0.000260305
0.000267961
0.000275501
0.000267845
0.000267903
0.000257496
0.000268193
0.000278658
0.000268077
0.000258433
0.000262787
0.000268019
0.000263665
0.000263226
0.00025656
0.000261909
0.000268135
0.000262348
0.000274478
0.00027971
0.000273368
0.000273923
0.000277606
0.000272257
0.000272812
0.00029982
0.000289239
0.000296779
0.000285146
0.000287192
0.000302861
0.000279184
0.00030134
0.000280237
0.000293332
0.000304381
0.000291285
0.000292309
0.000287656
0.000276959
0.000281052
0.000277751
0.000279006
0.000274652
0.000276201
0.000280849
0.000283099
0.0002793
0.000289442
0.000290697
0.000284354
0.000286898
0.000284615
0.000279267
0.00028181
0.000255624
0.000128262
0.000140852
0.000305901
0.000191943
0.000134557
0.000223377
0.000280763
0.00020766
0.000199801
0.000268193
0.000223783
0.000195872
0.000233997
0.000261909
0.00022889
0.000244211
0.000239104
0.000274478
0.000216899
0.000203731
0.000225936
0.000221417
0.000160102
0.000131409
0.000171108
0.000165605
0.000176022
0.000162854
0.000182703
0.000179363
0.000144182
0.000129835
0.000148507
0.000146345
0.000152833
0.000189384
0.000137705
0.000215518
0.000176612
0.000196065
0.000157158
0.000139279
0.000182115
0.000219448
0.000179363
0.000264639
0.000293332
0.000254425
0.000262487
0.000249318
0.000273879
0.000287047
0.000268183
0.000234972
0.000259532
0.00028527
0.000299617
0.000279574
0.000195674
0.000111507
0.000128262
0.000255624
0.000153591
0.000119884
0.000191943
0.000225649
0.000172767
0.000174632
0.000199208
0.000185153
0.00018692
0.000212428
0.000210661
0.000198791
0.000164111
0.000163179
0.000185987
0.000175049
0.000132549
0.000115696
0.000146326
0.000139437
0.00014307
0.000135993
0.000151308
0.000158385
0.000147189
0.000122028
0.000127567
0.00011779
0.000133105
0.000142881
0.000130336
0.000167973
0.000124073
0.000160102
0.000182355
0.000153214
0.00014977
0.000177561
0.000121979
0.000138643
0.000135874
0.000126167
0.000144182
0.000156658
0.000141413
0.000167784
0.000176022
0.000187149
0.000171903
0.000223783
0.000211496
0.000239704
0.000240636
0.000226066
0.000207863
0.000196925
0.000201506
0.000195674
0.000255624
0.000263114
0.000128262
0.00395435
0.00359542
0.000140852
0.0020413
0.00377488
0.00186814
0.000134557
0.00195472
0.00108478
0.00199801
0.00104464
0.000131409
0.00106471
0.00299783
0.00386462
0.0028648
0.00293131
0.00368515
0.00273178
0.00191143
0.00279829
0.00100449
0.000137705
0.00102457
0.00395435
0.0252668
0.0257163
0.00359542
0.0146106
0.0254916
0.0146559
0.00377488
0.0146332
0.00928246
0.0146219
0.00920406
0.00386462
0.00924326
0.0199387
0.0253792
0.0200624
0.0200005
0.0201861
0.0146446
0.00912565
0.00368515
0.00916485
0.00315424
0.0206017
0.0252668
0.00395435
0.011878
0.0229343
0.0146106
0.00355429
0.0132443
0.00751611
0.0125611
0.00839929
0.00335427
0.0079577
0.00533518
0.00773691
0.00565598
0.00325425
0.00549558
0.0122196
0.0102594
0.0129027
0.0108218
0.00817849
0.0105406
0.00597679
0.0162399
0.0180893
0.0140589
0.0171646
0.0156668
0.0148628
0.0184208
0.021768
0.0205118
0.0194663
0.0199387
0.019014
0.0172746
0.0139274
0.0164707
0.0241005
0.0235174
0.0185516
0.0215573
0.0246837
0.0226028
0.0194763
0.02208
0.00928246
0.00375432
0.00884088
0.0062976
0.0135859
0.0113842
0.00862008
0.011103
0.014269
0.00906167
0.00661841
0.00385433
0.006458
0.000111507
0.00315424
0.00395435
0.000128262
0.00163287
0.00355429
0.0020413
0.000119884
0.00183709
0.00087219
0.00173498
0.000978487
0.000115696
0.000925339
0.00239356
0.00269569
0.00299783
0.00108478
9.63201e-05
0.00170942
0.00315424
0.000111507
0.00090287
0.00243183
0.00163287
0.000103914
0.00126787
0.000499595
0.00108537
0.000685893
0.000100117
0.000592744
0.00130614
0.00207062
0.00184985
0.001578
0.00279303
0.00239356
0.00145037
0.0021217
0.00087219
0.000107711
0.000779041
0.00170942
0.0137162
0.0206017
0.00315424
0.0077128
0.017159
0.011878
0.00243183
0.00979539
0.00471111
0.0087541
0.00611361
0.00207062
0.00541236
0.00321026
0.00374149
0.00245984
0.00347588
0.00290606
0.00189002
0.00268295
0.00396069
0.00506174
0.00457693
0.00426881
0.00621196
0.00708323
0.00546153
0.0062478
0.00696238
0.00791866
0.0079545
0.00703406
0.00927475
0.00887495
0.00751887
0.00839681
0.00427272
0.00400711
0.00335227
0.00225123
0.00312917
0.00576299
0.00519317
0.00488505
0.0107145
0.0154376
0.0134772
0.0120958
0.00921365
0.010425
0.00846323
0.00958953
0.00996407
0.0112604
0.0122153
0.0145769
0.0137667
0.0114052
0.012991
0.0153181
0.0129313
0.0143976
0.0146021
0.0162385
0.0127865
0.0116363
0.0110306
0.0188803
0.0162399
0.0108367
0.0148585
0.0141678
0.0128476
0.010316
0.0122419
0.0180197
0.0168694
0.0160937
0.019741
0.0184208
0.0155492
0.0176451
0.0140589
0.0113573
0.0134533
0.00751611
0.00279303
0.00681486
0.00646424
0.00480395
0.00261243
0.00453833
0.00882577
0.00839014
0.00969705
0.00716549
0.00926141
0.00533518
0.00379849
0.00424471
0.0058094
0.00642564
0.000517283
0.00698468
0.0137162
0.00170942
0.00375098
0.0103504
0.0077128
0.00111335
0.00573189
0.00213413
0.00474144
0.00342262
0.000815317
0.00277838
0.00132571
0.00245625
0.00179685
0.0006663
0.00156128
0.00294256
0.00375991
0.00253834
0.00326914
0.00334677
0.00424621
0.00425067
0.00335123
0.00379872
0.00457726
0.00416858
0.00399994
0.0031005
0.00363454
0.00523666
0.00226799
0.000964334
0.00203242
0.00536783
0.00804116
0.0045594
0.00688653
0.00415519
0.00572297
0.00630921
0.0052322
0.00496362
0.00746384
0.00476151
0.00621373
0.00717519
0.00596835
0.00516572
0.0077525
0.00617625
0.00866755
0.0091958
0.0067045
0.00768602
0.00693114
0.00603616
0.00658047
0.00782612
0.00817679
0.00737863
0.00950899
0.00977311
0.00844091
0.00897495
0.00719526
0.00861848
0.00737283
0.00790687
0.0107145
0.00921365
0.00805009
0.00846323
0.00672235
0.00738622
0.00996407
0.00871396
0.00958886
0.00838202
0.0103393
0.0120333
0.0122153
0.00937783
0.0107056
0.00995068
0.0100417
0.00870949
0.00933009
0.0111919
0.0113694
0.0105713
0.0128747
0.0129658
0.0114605
0.0121676
0.0100462
0.00471111
0.00141139
0.00406687
0.00374474
0.00273913
0.00126237
0.00250356
0.00622712
0.00498593
0.00539461
0.00721757
0.00621196
0.00438899
0.00580328
0.00321026
0.00207526
0.0029747
0.00245984
0.0015604
0.00226755
0.003403
0.00396069
0.00368184
0.000121803
0.000517283
0.00170942
9.63201e-05
0.000319543
0.00111335
0.00090287
0.000109061
0.000611206
0.000220673
0.000465375
0.000360134
0.000115432
0.000290403
0.000418413
0.000862279
0.00141139
0.000757038
0.000499595
0.000102691
0.000429864
0.000127005
0.000152531
0.000195674
0.000201506
0.000152531
9.63201e-05
0.000111507
0.000195674
8.04888e-05
0.000121803
9.63201e-05
0.000152531
7.4481e-05
8.04888e-05
0.000152531
0.000127005
3.92117e-05
2.1038e-05
8.04888e-05
7.4481e-05
2.1038e-05
8.61694e-05
0.000121803
8.04888e-05
6.62386e-06
1.25013e-05
8.61694e-05
2.1038e-05
9.93617e-06
6.62386e-06
2.1038e-05
3.92117e-05
8.61694e-05
7.81149e-05
0.000517283
0.000121803
8.21422e-05
0.000297699
0.000319543
0.000103986
0.000200842
7.81149e-05
0.00236877
0.00698468
0.000517283
0.00122344
0.00467672
0.00375098
0.000297699
0.00248721
0.000650778
0.00185533
0.00139245
0.000187907
0.00102162
0.000364447
0.000836198
0.000604762
0.000133011
0.000484604
0.00093711
0.00153938
0.00143847
0.00118779
0.00217127
0.00193983
0.00120704
0.00168915
0.000845077
0.000242803
0.000724919
0.00179611
0.00352275
0.00358197
0.00268904
0.00150977
0.00224257
0.00227218
0.00189098
0.00208244
0.00294576
0.00310589
0.00259416
0.00409973
0.00412935
0.0031355
0.00361762
0.00303459
0.00265339
0.0058307
0.00536783
0.0031191
0.0044749
0.00402843
0.003797
0.00280315
0.00341579
0.00525371
0.0051528
0.00464107
0.00640769
0.00492136
0.00343504
0.00213413
0.000407491
0.00176329
0.00157787
0.00108539
0.000352595
0.000965235
0.00244119
0.00219051
0.00294256
0.00194871
0.00269188
0.00132571
0.000462387
0.00120555
4.45645e-05
0.000414304
0.00236877
7.81149e-05
0.000229434
0.00139154
0.00122344
6.13397e-05
0.000726438
0.000136999
0.000477936
0.000393889
5.29521e-05
0.000265444
0.000321869
0.00105899
0.000275652
0.000690428
0.000892713
0.000584182
0.000368087
0.00122526
0.00188015
0.00179611
0.00097494
0.00142755
0.000650778
6.97273e-05
0.000522334
1.25013e-05
4.45645e-05
7.81149e-05
8.61694e-05
3.60495e-07
2.94023e-05
4.45645e-05
1.25013e-05
2.94023e-05
3.084e-05
0.000414304
4.45645e-05
3.01211e-05
0.000222572
0.000229434
3.69834e-05
0.000129778
8.78947e-06
5.36262e-06
3.084e-05
2.94023e-05
1.04087e-07
8.78947e-06
2.94023e-05
3.60495e-07
1.91138e-07
3.79073e-06
6.62386e-06
9.93617e-06
3.79073e-06
3.60495e-07
1.25013e-05
6.62386e-06
1.28017e-06
1.04087e-07
3.60495e-07
3.79073e-06
1.5303e-08
1.28017e-06
3.79073e-06
1.91138e-07
0
2.37047e-07
3.36681e-06
0
2.37047e-07
2.32593e-06
5.20338e-06
3.36681e-06
2.46262e-08
6.70862e-07
2.32593e-06
2.37047e-07
0
2.46262e-08
2.37047e-07
0
2.32593e-06
4.00567e-06
2.23214e-05
5.20338e-06
4.00567e-06
3.92117e-05
7.4481e-05
2.23214e-05
1.36041e-07
9.93617e-06
3.92117e-05
4.00567e-06
6.70862e-07
1.36041e-07
4.00567e-06
2.32593e-06
1.02931e-08
3.38676e-07
1.36041e-07
6.70862e-07
3.38676e-07
1.91138e-07
9.93617e-06
1.36041e-07
1.18561e-07
1.5303e-08
1.91138e-07
3.38676e-07
2.23019e-09
1.18561e-07
3.38676e-07
1.02931e-08
-1.65436e-24
4.42218e-08
2.46262e-08
1.65436e-24
4.42218e-08
1.02931e-08
6.70862e-07
2.46262e-08
1.02649e-08
2.23019e-09
1.02931e-08
4.42218e-08
0
1.02649e-08
4.42218e-08
0
0.0252668
0.0752346
0.0793381
0.0257163
0.0502507
0.0772863
0.0525272
0.0254916
0.051389
0.0377588
0.0508198
0.0384403
0.0253792
0.0380995
0.0627426
0.0643376
0.0783122
0.0659326
0.0519581
0.0651351
0.0391218
0.025604
0.038781
0.0752346
0.148224
0.155665
0.0793381
0.111729
0.151945
0.117502
0.0772863
0.114616
0.0628956
0.128345
0.148224
0.0752346
0.0956204
0.138285
0.111729
0.0690651
0.103675
0.079258
0.0996476
0.08637
0.0659804
0.082814
0.111983
0.133315
0.12098
0.116481
0.143254
0.129977
0.107702
0.125478
0.0934819
0.0721498
0.0899259
0.0206017
0.0628956
0.0752346
0.0252668
0.0417487
0.0690651
0.0502507
0.0229343
0.0459997
0.0311752
0.034467
0.0523221
0.0659804
0.0575324
0.0438742
0.0549273
0.0721498
0.0627426
0.0481252
0.0601375
0.0377588
0.0241005
0.0361129
0.148224
0.229528
0.237971
0.155665
0.229528
0.307989
0.317655
0.237971
0.205098
0.28095
0.307989
0.229528
0.243024
0.29447
0.268759
0.217313
0.255891
0.128345
0.205098
0.229528
0.148224
0.166722
0.217313
0.188876
0.138285
0.177799
0.0994494
0.166857
0.205098
0.128345
0.133153
0.185978
0.166722
0.113897
0.149937
0.116301
0.141545
0.131917
0.106673
0.124109
0.150005
0.176417
0.167957
0.158981
0.195538
0.18591
0.15833
0.176934
0.147533
0.121121
0.139725
0.166857
0.23709
0.28095
0.205098
0.201974
0.25902
0.243024
0.185978
0.222499
0.120867
0.180467
0.23709
0.166857
0.150667
0.208779
0.201974
0.143862
0.17632
0.135767
0.163493
0.160091
0.132364
0.147929
0.194623
0.192549
0.222934
0.219532
0.189147
0.206041
0.155359
0.0672569
0.120867
0.166857
0.0994494
0.0940618
0.143862
0.133153
0.0833532
0.113608
0.0806593
0.0984803
0.107464
0.132364
0.128735
0.103835
0.118099
0.155359
0.150005
0.12338
0.13937
0.116301
0.0914013
0.107391
0.0137162
0.0457771
0.0628956
0.0206017
0.0297467
0.0543364
0.0417487
0.017159
0.0357477
0.0217314
0.0327472
0.0264533
0.0154376
0.0240924
0.0377619
0.0500568
0.045042
0.041402
0.058616
0.0523221
0.0387482
0.0486821
0.0311752
0.0188803
0.0288143
0.0457771
0.0994494
0.128345
0.0628956
0.0726133
0.113897
0.0956204
0.0543364
0.0841169
0.0591952
0.0783651
0.0692266
0.0500568
0.0642109
0.0860314
0.106673
0.0990071
0.0925192
0.121121
0.111983
0.0898686
0.105495
0.079258
0.058616
0.0742423
0.0279776
0.0672569
0.0994494
0.0457771
0.0476173
0.0833532
0.0726133
0.0368774
0.0601153
0.0377975
0.0538663
0.0484963
0.0324275
0.0431469
0.0574371
0.075305
0.0717342
0.0645856
0.0860314
0.0591952
0.00698468
0.0279776
0.0457771
0.0137162
0.0174812
0.0368774
0.0297467
0.0103504
0.0236139
0.0122329
0.0205475
0.0169822
0.00866755
0.0146075
0.0227294
0.0324275
0.0302456
0.0264875
0.0413273
0.0377619
0.0266803
0.0340038
0.0217314
0.0120333
0.0193568
0.307989
0.378707
0.391194
0.317655
0.343348
0.38495
0.354424
0.312822
0.348886
0.378707
0.432922
0.442508
0.391194
0.405814
0.437715
0.416851
0.38495
0.411333
0.349724
0.404694
0.432922
0.378707
0.28095
0.349724
0.378707
0.307989
0.432922
0.45801
0.458366
0.442508
0.445466
0.458188
0.450437
0.437715
0.447951
0.45801
0.458388
0.458386
0.458366
0.439178
0.449996
0.458388
0.45801
0.444587
0.454192
0.458199
0.448594
0.451393
0.404694
0.439178
0.45801
0.432922
0.421936
0.448594
0.445466
0.418808
0.433701
0.352907
0.387226
0.439178
0.404694
0.387226
0.400153
0.449996
0.439178
0.313382
0.322642
0.400153
0.387226
0.318012
0.361397
0.39369
0.350304
0.355851
0.282989
0.313382
0.387226
0.352907
0.298186
0.350304
0.370067
0.317948
0.334126
0.23709
0.301498
0.349724
0.28095
0.269294
0.325611
0.315337
0.25902
0.292316
0.301498
0.352907
0.404694
0.349724
0.327203
0.378801
0.377209
0.325611
0.352206
0.237282
0.282989
0.352907
0.301498
0.260136
0.317948
0.327203
0.26939
0.293669
0.180467
0.237282
0.301498
0.23709
0.208875
0.26939
0.269294
0.208779
0.239084
0.120113
0.165683
0.237282
0.180467
0.142898
0.201482
0.208875
0.15029
0.175886
0.165683
0.203298
0.282989
0.237282
0.18449
0.243144
0.260136
0.201482
0.222313
0.0981885
0.125742
0.203298
0.165683
0.111965
0.16452
0.18449
0.131936
0.148228
0.0667967
0.0981885
0.165683
0.120113
0.0824926
0.131936
0.142898
0.0934551
0.112695
0.097594
0.0801259
0.0903405
0.115062
0.122315
0.106328
0.148809
0.15429
0.127797
0.138303
0.103075
0.131506
0.106784
0.11729
0.203298
0.228617
0.313382
0.282989
0.215957
0.270999
0.298186
0.243144
0.257072
0.228617
0.236077
0.322642
0.313382
0.144166
0.150487
0.236077