# vtk DataFile Version 2.0

ASCII

DATASET UNSTRUCTURED_GRID
POINTS 25491 float
0 0.484375 1.69407e-21
0.015625 0.484375 1.90321e-05
0.015625 0.5 2.82191e-05
0 0.5 -1.69407e-21
0.015625 0.484375 1.90321e-05
0.03125 0.484375 3.19256e-05
0.03125 0.5 4.05552e-05
0.015625 0.5 2.82191e-05
0.015625 0.46875 9.60196e-06
0.03125 0.46875 1.82795e-05
0.03125 0.484375 3.19256e-05
0.015625 0.484375 1.90321e-05
0 0.46875 0
0.015625 0.46875 9.60196e-06
0.015625 0.484375 1.90321e-05
0 0.484375 0
0.03125 0.484375 3.19256e-05
0.046875 0.484375 0.000109207
0.046875 0.5 0.000140379
0.03125 0.5 4.05552e-05
0.046875 0.484375 0.000109207
0.0625 0.484375 0.000175053
0.0625 0.5 0.000188463
0.046875 0.5 0.000140379
0.046875 0.46875 5.93261e-05
0.0625 0.46875 9.12174e-05
0.0625 0.484375 0.000175053
0.046875 0.484375 0.000109207
0.03125 0.46875 1.82795e-05
0.046875 0.46875 5.93261e-05
0.046875 0.484375 0.000109207
0.03125 0.484375 3.19256e-05
0.03125 0.453125 6.62219e-06
0.046875 0.453125 2.20343e-05
0.046875 0.46875 5.93261e-05
0.03125 0.46875 1.82795e-05
0.046875 0.453125 2.20343e-05
0.0625 0.453125 2.78923e-05
0.0625 0.46875 9.12174e-05
0.046875 0.46875 5.93261e-05
0.046875 0.4375 1.93015e-06
0.0625 0.4375 1.27607e-05
0.0625 0.453125 2.78923e-05
0.046875 0.453125 2.20343e-05
0.03125 0.4375 2.06173e-06
0.046875 0.4375 1.93015e-06
0.046875 0.453125 2.20343e-05
0.03125 0.453125 6.62219e-06
0 0.453125 0
0.015625 0.453125 2.90345e-06
0.015625 0.46875 9.60196e-06
0 0.46875 0
0.015625 0.453125 2.90345e-06
0.03125 0.453125 6.62219e-06
0.03125 0.46875 1.82795e-05
0.015625 0.46875 9.60196e-06
0.015625 0.4375 1.3488e-07
0.03125 0.4375 2.06173e-06
0.03125 0.453125 6.62219e-06
0.015625 0.453125 2.90345e-06
0 0.4375 2.11758e-22
0.015625 0.4375 1.3488e-07
0.015625 0.453125 2.90345e-06
0 0.453125 -2.11758e-22
0.0625 0.484375 0.000175053
0.078125 0.484375 0.000123874
0.078125 0.5 0.000178283
0.0625 0.5 0.000188463
0.078125 0.484375 0.000123874
0.09375 0.484375 9.01155e-05
0.09375 0.5 0.000106494
0.078125 0.5 0.000178283
0.078125 0.46875 0.000106057
0.09375 0.46875 4.26889e-05
0.09375 0.484375 9.01155e-05
0.078125 0.484375 0.000123874
0.0625 0.46875 9.12174e-05
0.078125 0.46875 0.000106057
0.078125 0.484375 0.000123874
0.0625 0.484375 0.000175053
0.09375 0.484375 9.01155e-05
0.109375 0.484375 0.00420204
0.109375 0.5 0.00391379
0.09375 0.5 0.000106494
0.109375 0.484375 0.00420204
0.125 0.484375 0.0264801
0.125 0.5 0.0270467
0.109375 0.5 0.00391379
0.109375 0.46875 0.00329366
0.125 0.46875 0.0216576
0.125 0.484375 0.0264801
0.109375 0.484375 0.00420204
0.09375 0.46875 4.26889e-05
0.109375 0.46875 0.00329366
0.109375 0.484375 0.00420204
0.09375 0.484375 9.01155e-05
0.09375 0.453125 2.88407e-05
0.109375 0.453125 0.00174296
0.109375 0.46875 0.00329366
0.09375 0.46875 4.26889e-05
0.109375 0.453125 0.00174296
0.125 0.453125 0.0145292
0.125 0.46875 0.0216576
0.109375 0.46875 0.00329366
0.109375 0.4375 0.000465104
0.125 0.4375 0.00749434
0.125 0.453125 0.0145292
0.109375 0.453125 0.00174296
0.09375 0.4375 7.75776e-05
0.109375 0.4375 0.000465104
0.109375 0.453125 0.00174296
0.09375 0.453125 2.88407e-05
0.0625 0.453125 2.78923e-05
0.078125 0.453125 4.23644e-05
0.078125 0.46875 0.000106057
0.0625 0.46875 9.12174e-05
0.078125 0.453125 4.23644e-05
0.09375 0.453125 2.88407e-05
0.09375 0.46875 4.26889e-05
0.078125 0.46875 0.000106057
0.078125 0.4375 6.20142e-07
0.09375 0.4375 7.75776e-05
0.09375 0.453125 2.88407e-05
0.078125 0.453125 4.23644e-05
0.0625 0.4375 1.27607e-05
0.078125 0.4375 6.20142e-07
0.078125 0.453125 4.23644e-05
0.0625 0.453125 2.78923e-05
0.0625 0.421875 5.25626e-06
0.078125 0.421875 2.30514e-07
0.078125 0.4375 6.20142e-07
0.0625 0.4375 1.27607e-05
0.078125 0.421875 2.30514e-07
0.09375 0.421875 4.09728e-05
0.09375 0.4375 7.75776e-05
0.078125 0.4375 6.20142e-07
0.078125 0.40625 2.04652e-06
0.09375 0.40625 4.83941e-07
0.09375 0.421875 4.09728e-05
0.078125 0.421875 2.30514e-07
0.0625 0.40625 1.55285e-07
0.078125 0.40625 2.04652e-06
0.078125 0.421875 2.30514e-07
0.0625 0.421875 5.25626e-06
0.09375 0.421875 4.09728e-05
0.109375 0.421875 1.56576e-05
0.109375 0.4375 0.000465104
0.09375 0.4375 7.75776e-05
0.109375 0.421875 1.56576e-05
0.125 0.421875 0.00255803
0.125 0.4375 0.00749434
0.109375 0.4375 0.000465104
0.109375 0.40625 5.98544e-06
0.125 0.40625 0.000372464
0.125 0.421875 0.00255803
0.109375 0.421875 1.56576e-05
0.09375 0.40625 4.83941e-07
0.109375 0.40625 5.98544e-06
0.109375 0.421875 1.56576e-05
0.09375 0.421875 4.09728e-05
0.09375 0.390625 1.9072e-08
0.109375 0.390625 1.39866e-06
0.109375 0.40625 5.98544e-06
0.09375 0.40625 4.83941e-07
0.109375 0.390625 1.39866e-06
0.125 0.390625 3.5677e-07
0.125 0.40625 0.000372464
0.109375 0.40625 5.98544e-06
0.109375 0.375 1.7314e-08
0.125 0.375 5.57158e-08
0.125 0.390625 3.5677e-07
0.109375 0.390625 1.39866e-06
0.09375 0.375 1.96923e-08
0.109375 0.375 1.7314e-08
0.109375 0.390625 1.39866e-06
0.09375 0.390625 1.9072e-08
0.0625 0.390625 3.02884e-09
0.078125 0.390625 4.14018e-07
0.078125 0.40625 2.04652e-06
0.0625 0.40625 1.55285e-07
0.078125 0.390625 4.14018e-07
0.09375 0.390625 1.9072e-08
0.09375 0.40625 4.83941e-07
0.078125 0.40625 2.04652e-06
0.078125 0.375 1.20318e-08
0.09375 0.375 1.96923e-08
0.09375 0.390625 1.9072e-08
0.078125 0.390625 4.14018e-07
0.0625 0.375 8.42415e-08
0.078125 0.375 1.20318e-08
0.078125 0.390625 4.14018e-07
0.0625 0.390625 3.02884e-09
0 0.421875 0
0.015625 0.421875 2.91426e-09
0.015625 0.4375 1.3488e-07
0 0.4375 0
0.015625 0.421875 2.91426e-09
0.03125 0.421875 3.05743e-07
0.03125 0.4375 2.06173e-06
0.015625 0.4375 1.3488e-07
0.015625 0.40625 1.06047e-09
0.03125 0.40625 9.65759e-10
0.03125 0.421875 3.05743e-07
0.015625 0.421875 2.91426e-09
0 0.40625 2.06795e-25
0.015625 0.40625 1.06047e-09
0.015625 0.421875 2.91426e-09
0 0.421875 -2.06795e-25
0.03125 0.421875 3.05743e-07
0.046875 0.421875 7.14584e-09
0.046875 0.4375 1.93015e-06
0.03125 0.4375 2.06173e-06
0.046875 0.421875 7.14584e-09
0.0625 0.421875 5.25626e-06
0.0625 0.4375 1.27607e-05
0.046875 0.4375 1.93015e-06
0.046875 0.40625 3.29373e-07
0.0625 0.40625 1.55285e-07
0.0625 0.421875 5.25626e-06
0.046875 0.421875 7.14584e-09
0.03125 0.40625 9.65759e-10
0.046875 0.40625 3.29373e-07
0.046875 0.421875 7.14584e-09
0.03125 0.421875 3.05743e-07
0.03125 0.390625 9.26e-10
0.046875 0.390625 9.04858e-08
0.046875 0.40625 3.29373e-07
0.03125 0.40625 9.65759e-10
0.046875 0.390625 9.04858e-08
0.0625 0.390625 3.02884e-09
0.0625 0.40625 1.55285e-07
0.046875 0.40625 3.29373e-07
0.046875 0.375 1.33034e-09
0.0625 0.375 8.42415e-08
0.0625 0.390625 3.02884e-09
0.046875 0.390625 9.04858e-08
0.03125 0.375 4.58598e-09
0.046875 0.375 1.33034e-09
0.046875 0.390625 9.04858e-08
0.03125 0.390625 9.26e-10
0 0.390625 0
0.015625 0.390625 9.26e-10
0.015625 0.40625 1.06047e-09
0 0.40625 0
0.015625 0.390625 9.26e-10
0.03125 0.390625 9.26e-10
0.03125 0.40625 9.65759e-10
0.015625 0.40625 1.06047e-09
0.015625 0.375 9.26e-10
0.03125 0.375 4.58598e-09
0.03125 0.390625 9.26e-10
0.015625 0.390625 9.26e-10
0 0.375 0
0.015625 0.375 9.26e-10
0.015625 0.390625 9.26e-10
0 0.390625 0
0.125 0.484375 0.0264801
0.140625 0.484375 0.0756922
0.140625 0.5 0.0796053
0.125 0.5 0.0270467
0.140625 0.484375 0.0756922
0.15625 0.484375 0.14686
0.15625 0.5 0.154149
0.140625 0.5 0.0796053
0.140625 0.46875 0.063758
0.15625 0.46875 0.127561
0.15625 0.484375 0.14686
0.140625 0.484375 0.0756922
0.148438 0.46875 0.0956593
0.15625 0.476562 0.13721
0.148438 0.484375 0.111276
0.140625 0.476562 0.0697251
0.148438 0.476562 0.103468
0.125 0.46875 0.0216576
0.140625 0.46875 0.063758
0.140625 0.484375 0.0756922
0.125 0.484375 0.0264801
0.132812 0.46875 0.0427078
0.140625 0.476562 0.0697251
0.132812 0.484375 0.0510862
0.125 0.476562 0.0240689
0.132812 0.476562 0.046897
0.15625 0.484375 0.14686
0.171875 0.484375 0.227662
0.171875 0.5 0.236459
0.15625 0.5 0.154149
0.171875 0.484375 0.227662
0.1875 0.484375 0.307704
0.1875 0.5 0.317888
0.171875 0.5 0.236459
0.171875 0.46875 0.203158
0.1875 0.46875 0.279717
0.1875 0.484375 0.307704
0.171875 0.484375 0.227662
0.15625 0.46875 0.127561
0.171875 0.46875 0.203158
0.171875 0.484375 0.227662
0.15625 0.484375 0.14686
0.15625 0.453125 0.0994772
0.171875 0.453125 0.165448
0.171875 0.46875 0.203158
0.15625 0.46875 0.127561
0.164062 0.453125 0.132463
0.171875 0.460938 0.184303
0.164062 0.46875 0.165359
0.15625 0.460938 0.113519
0.164062 0.460938 0.148911
0.171875 0.453125 0.165448
0.1875 0.453125 0.235348
0.1875 0.46875 0.279717
0.171875 0.46875 0.203158
0.179688 0.453125 0.200398
0.1875 0.460938 0.257533
0.179688 0.46875 0.241437
0.171875 0.460938 0.184303
0.179688 0.460938 0.220918
0.171875 0.4375 0.120549
0.1875 0.4375 0.179228
0.1875 0.453125 0.235348
0.171875 0.453125 0.165448
0.179688 0.4375 0.149889
0.1875 0.445312 0.207288
0.179688 0.453125 0.200398
0.171875 0.445312 0.142999
0.179688 0.445312 0.175143
0.15625 0.4375 0.0679619
0.171875 0.4375 0.120549
0.171875 0.453125 0.165448
0.15625 0.453125 0.0994772
0.164062 0.4375 0.0942555
0.171875 0.445312 0.142999
0.164062 0.453125 0.132463
0.15625 0.445312 0.0837196
0.164062 0.445312 0.113359
0.125 0.453125 0.0145292
0.140625 0.453125 0.0468937
0.140625 0.46875 0.063758
0.125 0.46875 0.0216576
0.132812 0.453125 0.0307114
0.140625 0.460938 0.0553258
0.132812 0.46875 0.0427078
0.125 0.460938 0.0180934
0.132812 0.460938 0.0367096
0.140625 0.453125 0.0468937
0.15625 0.453125 0.0994772
0.15625 0.46875 0.127561
0.140625 0.46875 0.063758
0.148438 0.453125 0.0731855
0.15625 0.460938 0.113519
0.148438 0.46875 0.0956593
0.140625 0.460938 0.0553258
0.148438 0.460938 0.0844224
0.140625 0.4375 0.0290981
0.15625 0.4375 0.0679619
0.15625 0.453125 0.0994772
0.140625 0.453125 0.0468937
0.148438 0.4375 0.04853
0.15625 0.445312 0.0837196
0.148438 0.453125 0.0731855
0.140625 0.445312 0.0379959
0.148438 0.445312 0.0608577
0.125 0.4375 0.00749434
0.140625 0.4375 0.0290981
0.140625 0.453125 0.0468937
0.125 0.453125 0.0145292
0.132812 0.4375 0.0182962
0.140625 0.445312 0.0379959
0.132812 0.453125 0.0307114
0.125 0.445312 0.0110118
[...]
POINT_DATA 25491
SCALARS "solution" float 1
LOOKUP_TABLE default
1.69407e-21
1.90321e-05
2.82191e-05
-1.69407e-21
1.90321e-05
3.19256e-05
4.05552e-05
2.82191e-05
9.60196e-06
1.82795e-05
3.19256e-05
1.90321e-05
0
9.60196e-06
1.90321e-05
0
3.19256e-05
0.000109207
0.000140379
4.05552e-05
0.000109207
0.000175053
0.000188463
0.000140379
5.93261e-05
9.12174e-05
0.000175053
0.000109207
1.82795e-05
5.93261e-05
0.000109207
3.19256e-05
6.62219e-06
2.20343e-05
5.93261e-05
1.82795e-05
2.20343e-05
2.78923e-05
9.12174e-05
5.93261e-05
1.93015e-06
1.27607e-05
2.78923e-05
2.20343e-05
2.06173e-06
1.93015e-06
2.20343e-05
6.62219e-06
0
2.90345e-06
9.60196e-06
0
2.90345e-06
6.62219e-06
1.82795e-05
9.60196e-06
1.3488e-07
2.06173e-06
6.62219e-06
2.90345e-06
2.11758e-22
1.3488e-07
2.90345e-06
-2.11758e-22
0.000175053
0.000123874
0.000178283
0.000188463
0.000123874
9.01155e-05
0.000106494
0.000178283
0.000106057
4.26889e-05
9.01155e-05
0.000123874
9.12174e-05
0.000106057
0.000123874
0.000175053
9.01155e-05
0.00420204
0.00391379
0.000106494
0.00420204
0.0264801
0.0270467
0.00391379
0.00329366
0.0216576
0.0264801
0.00420204
4.26889e-05
0.00329366
0.00420204
9.01155e-05
2.88407e-05
0.00174296
0.00329366
4.26889e-05
0.00174296
0.0145292
0.0216576
0.00329366
0.000465104
0.00749434
0.0145292
0.00174296
7.75776e-05
0.000465104
0.00174296
2.88407e-05
2.78923e-05
4.23644e-05
0.000106057
9.12174e-05
4.23644e-05
2.88407e-05
4.26889e-05
0.000106057
6.20142e-07
7.75776e-05
2.88407e-05
4.23644e-05
1.27607e-05
6.20142e-07
4.23644e-05
2.78923e-05
5.25626e-06
2.30514e-07
6.20142e-07
1.27607e-05
2.30514e-07
4.09728e-05
7.75776e-05
6.20142e-07
2.04652e-06
4.83941e-07
4.09728e-05
2.30514e-07
1.55285e-07
2.04652e-06
2.30514e-07
5.25626e-06
4.09728e-05
1.56576e-05
0.000465104
7.75776e-05
1.56576e-05
0.00255803
0.00749434
0.000465104
5.98544e-06
0.000372464
0.00255803
1.56576e-05
4.83941e-07
5.98544e-06
1.56576e-05
4.09728e-05
1.9072e-08
1.39866e-06
5.98544e-06
4.83941e-07
1.39866e-06
3.5677e-07
0.000372464
5.98544e-06
1.7314e-08
5.57158e-08
3.5677e-07
1.39866e-06
1.96923e-08
1.7314e-08
1.39866e-06
1.9072e-08
3.02884e-09
4.14018e-07
2.04652e-06
1.55285e-07
4.14018e-07
1.9072e-08
4.83941e-07
2.04652e-06
1.20318e-08
1.96923e-08
1.9072e-08
4.14018e-07
8.42415e-08
1.20318e-08
4.14018e-07
3.02884e-09
0
2.91426e-09
1.3488e-07
0
2.91426e-09
3.05743e-07
2.06173e-06
1.3488e-07
1.06047e-09
9.65759e-10
3.05743e-07
2.91426e-09
2.06795e-25
1.06047e-09
2.91426e-09
-2.06795e-25
3.05743e-07
7.14584e-09
1.93015e-06
2.06173e-06
7.14584e-09
5.25626e-06
1.27607e-05
1.93015e-06
3.29373e-07
1.55285e-07
5.25626e-06
7.14584e-09
9.65759e-10
3.29373e-07
7.14584e-09
3.05743e-07
9.26e-10
9.04858e-08
3.29373e-07
9.65759e-10
9.04858e-08
3.02884e-09
1.55285e-07
3.29373e-07
1.33034e-09
8.42415e-08
3.02884e-09
9.04858e-08
4.58598e-09
1.33034e-09
9.04858e-08
9.26e-10
0
9.26e-10
1.06047e-09
0
9.26e-10
9.26e-10
9.65759e-10
1.06047e-09
9.26e-10
4.58598e-09
9.26e-10
9.26e-10
0
9.26e-10
9.26e-10
0
0.0264801
0.0756922
0.0796053
0.0270467
0.0756922
0.14686
0.154149
0.0796053
0.063758
0.127561
0.14686
0.0756922
0.0956593
0.13721
0.111276
0.0697251
0.103468
0.0216576
0.063758
0.0756922
0.0264801
0.0427078
0.0697251
0.0510862
0.0240689
0.046897
0.14686
0.227662
0.236459
0.154149
0.227662
0.307704
0.317888
0.236459
0.203158
0.279717
0.307704
0.227662
0.127561
0.203158
0.227662
0.14686
0.0994772
0.165448
0.203158
0.127561
0.132463
0.184303
0.165359
0.113519
0.148911
0.165448
0.235348
0.279717
0.203158
0.200398
0.257533
0.241437
0.184303
0.220918
0.120549
0.179228
0.235348
0.165448
0.149889
0.207288
0.200398
0.142999
0.175143
0.0679619
0.120549
0.165448
0.0994772
0.0942555
0.142999
0.132463
0.0837196
0.113359
0.0145292
0.0468937
0.063758
0.0216576
0.0307114
0.0553258
0.0427078
0.0180934
0.0367096
0.0468937
0.0994772
0.127561
0.063758
0.0731855
0.113519
0.0956593
0.0553258
0.0844224
0.0290981
0.0679619
0.0994772
0.0468937
0.04853
0.0837196
0.0731855
0.0379959
0.0608577
0.00749434
0.0290981
0.0468937
0.0145292
0.0182962
0.0379959
0.0307114
0.0110118
0.0245038
0.307704
0.37923
0.391783
0.317888
0.37923
0.432642
0.442169
0.391783
0.349214
0.404054
0.432642
0.37923
0.279717
0.349214
0.37923
0.307704
0.432642
0.457353
0.457587
0.442169
0.444998
0.45747
0.449878
0.437406
0.447438
0.457353
0.457587
0.457587
0.457587
0.438744
0.449623
0.457587
0.457353
0.444183
0.453605
0.45747
0.448048
0.450827
0.404054
0.438744
0.457353
0.432642
0.421399
0.448048
0.444998
0.418348
0.433198
0.351685
0.386898
0.438744
0.404054
0.386898
0.399982
0.449623
0.438744
0.312347
0.322011
0.399982
0.386898
0.281381
0.312347
0.386898
0.351685
0.235348
0.299972
0.349214
0.279717
0.299972
0.351685
0.404054
0.349214
0.23552
0.281381
0.351685
0.299972
0.179228
0.23552
0.299972
0.235348
0.207374
0.267746
0.26766
0.207288
0.237517
0.12015
0.164822
0.23552
0.179228
0.142486
0.200171
0.207374
0.149689
0.17493
0.164822
0.202165
0.281381
0.23552
0.183494
0.241773
0.258451
0.200171
0.220972
0.0988643
0.12583
0.202165
0.164822
0.112347
0.163997
0.183494
0.131843
0.14792
0.0679235
0.0988643
0.164822
0.12015
0.0833939
0.131843
0.142486
0.0940368
0.11294
0.202165
0.227399
0.312347
0.281381
0.227399
0.235015
0.322011
0.312347
0.144339
0.150288
0.235015
0.227399
0.12583
0.144339
0.227399
0.202165
0.135084
0.185869
0.214782
0.163997
0.174933
0.0642791
0.0759581
0.144339
0.12583
0.0701186
0.110149
0.135084
0.0950545
0.102602
0.0759581
0.0799565
0.150288
0.144339
0.0303008
0.0324948
0.0799565
0.0759581
0.0244347
0.0303008
0.0759581
0.0642791
0.0299625
0.0478058
0.0988643
0.0679235
0.0388841
0.073335
0.0833939
0.048943
0.061139
0.0478058
0.0642791
0.12583
0.0988643
0.0560424
0.0950545
0.112347
0.073335
0.0841947
0.0165291
0.0244347
0.0642791
0.0478058
0.0204819
0.0443569
0.0560424
0.0321674
0.0382622
0.00879102
0.0165291
0.0478058
0.0299625
0.01266
0.0321674
0.0388841
0.0193768
0.0257721
0.00255803
0.0141865
0.0290981
0.00749434
0.00837228
0.0216423
0.0182962
0.00502618
0.0133342
0.0141865
0.0389668
0.0679619
0.0290981
0.0265767
0.0534644
0.04853
0.0216423
0.0375533
0.0046882
0.0172444
0.0389668
0.0141865
0.0109663
0.0281056
0.0265767
0.00943736
0.0187715
0.000372464
0.0046882
0.0141865
0.00255803
0.00253033
0.00943736
0.00837228
0.00146525
0.0054513
0.0389668
0.0759941
0.120549
0.0679619
0.0574805
0.0982716
0.0942555
0.0534644
0.075868
0.0759941
0.12015
0.179228
0.120549
0.0980721
0.149689
0.149889
0.0982716
0.12398
0.0391571
0.0679235
0.12015
0.0759941
0.0535403
0.0940368
0.0980721
0.0575756
0.0758062
0.0172444
0.0391571
0.0759941
0.0389668
0.0282008
0.0575756
0.0574805
0.0281056
0.0428406
0.00493722
0.0148732
0.0391571
0.0172444
0.00990522
0.0270152
0.0282008
0.0110908
0.019053
0.0148732
0.0299625
0.0679235
0.0391571
0.0224178
0.048943
0.0535403
0.0270152
0.0379791
0.00322694
0.00879102
0.0299625
0.0148732
0.00600898
0.0193768
0.0224178
0.00905008
0.0142134
0.000559265
0.00322694
0.0148732
0.00493722
0.0018931
0.00905008
0.00990522
0.00274824
0.00589916
3.5677e-07
0.000726999
0.0046882
0.000372464
0.000726999
0.00493722
0.0172444
0.0046882
0.00283211
0.0110908
0.0109663
0.0027076
0.00689921
4.02088e-06
0.000559265
0.00493722
0.000726999
5.57158e-08
4.02088e-06
0.000726999
3.5677e-07
1.90336e-08
1.92762e-08
4.02088e-06
5.57158e-08
1.92762e-08
2.63495e-07
0.000559265
4.02088e-06
2.17103e-08
3.07012e-08
2.63495e-07
1.92762e-08
1.73292e-08
2.17103e-08
1.92762e-08
1.90336e-08
2.63495e-07
0.000147361
0.00322694
0.000559265
0.000147361
0.00109116
0.00879102
0.00322694
2.51509e-08
7.35756e-07
0.00109116
0.000147361
3.07012e-08
2.51509e-08
0.000147361
2.63495e-07
1.78526e-08
5.47975e-07
2.51509e-08
3.07012e-08
5.47975e-07
3.07697e-08
7.35756e-07
2.51509e-08
2.01666e-08
1.64599e-06
3.07697e-08
5.47975e-07
6.49771e-08
2.01666e-08
5.47975e-07
1.78526e-08
1.73208e-08
1.75703e-08
2.17103e-08
1.73292e-08
1.75703e-08
1.78526e-08
3.07012e-08
2.17103e-08
1.75704e-08
6.49771e-08
1.78526e-08
1.75703e-08
8.7199e-08
1.75704e-08
1.75703e-08
1.73208e-08
0.00109116
0.002964
0.0165291
0.00879102
0.002964
0.00544348
0.0244347
0.0165291
5.86563e-05
0.000294566
0.00544348
0.002964
7.35756e-07
5.86563e-05
0.002964
0.00109116
0.00544348
0.00740807
0.0303008
0.0244347
0.00740807
0.00824239
0.0324948
0.0303008
0.000550725
0.000672626
0.00824239
0.00740807
0.000294566
0.000550725
0.00740807
0.00544348
1.88962e-07
4.99555e-06
0.000550725
0.000294566
4.99555e-06
1.31913e-05
0.000672626
0.000550725
1.84053e-05
1.86527e-05
1.31913e-05
4.99555e-06
1.14794e-05
1.84053e-05
4.99555e-06
1.88962e-07
3.07697e-08
1.88962e-07
5.86563e-05
7.35756e-07
1.88962e-07
1.88962e-07
0.000294566
5.86563e-05
1.39991e-07
1.14794e-05
1.88962e-07
1.88962e-07
1.64599e-06
1.39991e-07
1.88962e-07
3.07697e-08
3.2605e-08
1.9339e-07
1.39991e-07
1.64599e-06
1.9339e-07
8.93144e-06
1.14794e-05
1.39991e-07
9.85024e-06
1.31889e-05
8.93144e-06
1.9339e-07
2.86667e-06
9.85024e-06
1.9339e-07
3.2605e-08
8.93144e-06
1.15506e-05
1.84053e-05
1.14794e-05
1.15506e-05
1.2933e-05
1.86527e-05
1.84053e-05
1.6183e-05
1.60473e-05
1.2933e-05
1.15506e-05
1.31889e-05
1.6183e-05
1.15506e-05
8.93144e-06
1.63567e-05
1.63567e-05
1.6183e-05
1.31889e-05
1.63567e-05
1.59982e-05
1.60473e-05
1.6183e-05
1.55518e-05
1.55937e-05
1.59982e-05
1.63567e-05
9.4526e-06
1.55518e-05
1.63567e-05
1.63567e-05
4.47207e-07
7.18737e-06
9.85024e-06
2.86667e-06
7.18737e-06
1.63567e-05
1.31889e-05
9.85024e-06
8.79771e-06
9.4526e-06
1.63567e-05
7.18737e-06
1.47625e-06
8.79771e-06
7.18737e-06
4.47207e-07
8.22767e-08
2.01953e-07
1.75704e-08
8.7199e-08
2.01953e-07
1.78526e-08
6.49771e-08
1.75704e-08
2.01769e-08
7.52873e-07
1.78526e-08
2.01953e-07
7.56285e-08
2.01769e-08
2.01953e-07
8.22767e-08
1.78526e-08
6.82892e-07
2.01666e-08
6.49771e-08
6.82892e-07
3.2605e-08
1.64599e-06
2.01666e-08
2.01666e-08
2.86667e-06
3.2605e-08
6.82892e-07
7.52873e-07
2.01666e-08
6.82892e-07
1.78526e-08
2.39435e-08
2.54474e-06
2.01666e-08
7.52873e-07
2.54474e-06
4.47207e-07
2.86667e-06
2.01666e-08
4.40031e-07
1.47625e-06
4.47207e-07
2.54474e-06
9.18461e-07
4.40031e-07
2.54474e-06
2.39435e-08
2.42621e-08
6.09926e-07
2.01769e-08
7.56285e-08
6.09926e-07
2.39435e-08
7.52873e-07
2.01769e-08
2.49316e-08
9.18461e-07
2.39435e-08
6.09926e-07
4.92769e-08
2.49316e-08
6.09926e-07
2.42621e-08
5.16988e-26
1.7148e-09
9.26e-10
-5.16988e-26
1.7148e-09
1.25752e-09
4.58598e-09
9.26e-10
7.75734e-10
4.35519e-10
1.25752e-09
1.7148e-09
0
7.75734e-10
1.7148e-09
0
1.25752e-09
1.34436e-08
1.33034e-09
4.58598e-09
1.34436e-08
1.09939e-08
8.42415e-08
1.33034e-09
1.74716e-09
8.98603e-09
1.09939e-08
1.34436e-08
4.35519e-10
1.74716e-09
1.34436e-08
1.25752e-09
4.2709e-10
8.43309e-09
1.74716e-09
4.35519e-10
8.43309e-09
1.89481e-09
8.98603e-09
1.74716e-09
4.17113e-09
5.74344e-09
1.89481e-09
8.43309e-09
1.27444e-09
4.17113e-09
8.43309e-09
4.2709e-10
5.16988e-26
1.20248e-09
7.75734e-10
-5.16988e-26
1.20248e-09
4.2709e-10
4.35519e-10
7.75734e-10
4.16601e-10
1.27444e-09
4.2709e-10
1.20248e-09
1.03398e-25
4.16601e-10
1.20248e-09
-1.03398e-25
1.09939e-08
4.19127e-08
1.20318e-08
8.42415e-08
4.19127e-08
1.7314e-08
1.96923e-08
1.20318e-08
1.66527e-08
5.26772e-08
1.7314e-08
4.19127e-08
8.98603e-09
1.66527e-08
4.19127e-08
1.09939e-08
1.7314e-08
1.73715e-08
1.7314e-08
1.96923e-08
1.73715e-08
1.90336e-08
5.57158e-08
1.7314e-08
1.7314e-08
1.73292e-08
1.90336e-08
1.73715e-08
5.26772e-08
1.7314e-08
1.73715e-08
1.7314e-08
1.73335e-08
8.69683e-08
1.7314e-08
5.26772e-08
8.69683e-08
1.73208e-08
1.73292e-08
1.7314e-08
3.43505e-08
8.7199e-08
1.73208e-08
8.69683e-08
4.701e-08
3.43505e-08
8.69683e-08
1.73335e-08
1.89481e-09
4.50702e-08
1.66527e-08
8.98603e-09
4.50702e-08
1.73335e-08
5.26772e-08
1.66527e-08
2.49242e-08
4.701e-08
1.73335e-08
4.50702e-08
5.74344e-09
2.49242e-08
4.50702e-08
1.89481e-09
1.03423e-08
2.95191e-08
2.49242e-08
5.74344e-09
2.95191e-08
3.16697e-08
4.701e-08
2.49242e-08
3.08375e-08
2.40191e-08
3.16697e-08
2.95191e-08
9.58051e-10
3.08375e-08
2.95191e-08
1.03423e-08
3.16697e-08
4.3801e-08
3.43505e-08
4.701e-08
4.3801e-08
8.22767e-08
8.7199e-08
3.43505e-08
9.40593e-08
7.56285e-08
8.22767e-08
4.3801e-08
2.40191e-08
9.40593e-08
4.3801e-08
3.16697e-08
2.27806e-08
9.43308e-08
9.40593e-08
2.40191e-08
9.43308e-08
2.42621e-08
7.56285e-08
9.40593e-08
9.43308e-08
4.92769e-08
2.42621e-08
9.43308e-08
2.23375e-08
9.43308e-08
9.43308e-08
2.27806e-08
4.08584e-10
2.21146e-08
3.08375e-08
9.58051e-10
2.21146e-08
2.27806e-08
2.40191e-08
3.08375e-08
2.5174e-08
2.23375e-08
2.27806e-08
2.21146e-08
2.9063e-10
2.5174e-08
2.21146e-08
4.08584e-10
0
6.74595e-10
4.16601e-10
0
6.74595e-10
3.28746e-10
1.27444e-09
4.16601e-10
8.42108e-10
2.52855e-10
3.28746e-10
6.74595e-10
0
8.42108e-10
6.74595e-10
0
3.28746e-10
2.64927e-10
4.17113e-09
1.27444e-09
2.64927e-10
1.03423e-08
5.74344e-09
4.17113e-09
7.59078e-09
9.58051e-10
1.03423e-08
2.64927e-10
2.52855e-10
7.59078e-09
2.64927e-10
3.28746e-10
2.23811e-10
5.89094e-09
7.59078e-09
2.52855e-10
5.89094e-09
4.08584e-10
9.58051e-10
7.59078e-09
3.40514e-09
2.9063e-10
4.08584e-10
5.89094e-09
1.97339e-10
3.40514e-09
5.89094e-09
2.23811e-10
5.16988e-26
8.47877e-10
8.42108e-10
-5.16988e-26
8.47877e-10
2.23811e-10
2.52855e-10
8.42108e-10
8.50186e-10
1.97339e-10
2.23811e-10
8.47877e-10
5.16988e-26
8.50186e-10
8.47877e-10
-5.16988e-26
0.457587
0.457587
0.457585
0.457587
0.457587
0.43804
0.446222
0.457585
0.447814
0.442131
0.451903
0.457586
0.449859
0.442243
0.410235
0.43804
0.457587
0.426239
0.424138
0.447814
0.449915
0.437026
0.449623
0.442243
0.457587
0.457587
0.445933
0.449915
0.457587
0.453605
0.45176
0.43804
0.38196
0.392668
0.446222
0.38196
0.307867
0.314485
0.392668
0.353121
0.28209
0.307867
0.38196
0.410235
0.353121
0.38196
0.43804
0.356381
0.303013
0.353121
0.410235
0.303013
0.237534
0.28209
0.353121
0.237205
0.180196
0.237534
0.303013
0.208701
0.208865
0.270273
0.270109
0.239487
0.283608
0.237205
0.303013
0.356381
0.260407
0.270109
0.329697
0.319995
0.295052
0.399982
0.390208
0.442243
0.449623
0.390208
0.356381
0.410235
0.442243
0.312965
0.283608
0.356381
0.390208
0.322011
0.312965
0.390208
0.399982
0.307867
0.227929
0.234819
0.314485
0.227929
0.148842
0.154224
0.234819
0.205351
0.128947
0.148842
0.227929
0.28209
0.205351
0.227929
0.307867
0.148842
0.0762534
0.0789824
0.154224
0.0762534
0.0240576
0.0221644
0.0789824
0.063983
0.020814
0.0240576
0.0762534
0.0423985
0.0224358
0.0501555
0.0701182
0.046277
0.128947
0.063983
0.0762534
0.148842
0.0964648
0.0701182
0.112547
0.138894
0.104506
0.0997471
0.04649
0.063983
0.128947
0.0731185
0.0552365
0.0964648
0.114347
0.0847917
0.04649
0.0136426
0.020814
0.063983
0.0300663
0.0172283
0.0423985
0.0552365
0.0362324
0.0275209
0.00672142
0.0136426
0.04649
0.0171211
0.010182
0.0300663
0.0370054
0.0235937
0.0668061
0.0275209
0.04649
0.0997471
0.0471635
0.0370054
0.0731185
0.0832766
0.060141
0.237534
0.166687
0.205351
0.28209
0.166687
0.0997471
0.128947
0.205351
0.133217
0.114347
0.167149
0.186019
0.150183
0.120853
0.0668061
0.0997471
0.166687
0.0938296
0.0832766
0.133217
0.14377
0.113523
0.180196
0.120853
0.166687
0.237534
0.150524
0.14377
0.20211
0.208865
0.176317
0.120039
0.0752879
0.120853
0.180196
0.0976635
0.0980705
0.150524
0.150117
0.124094
0.0752879
0.0378759
0.0668061
0.120853
0.0565819
0.052341
0.0938296
0.0980705
0.0752058
0.0378559
0.0156984
0.0378759
0.0752879
0.0267771
0.0267872
0.0565819
0.0565719
0.0416795
0.0667875
0.0378559
0.0752879
0.120039
0.0523217
0.0565719
0.0976635
0.0934133
0.0749926
0.0378759
0.0124588
0.0275209
0.0668061
0.0251674
0.0199898
0.0471635
0.052341
0.0361654
0.0124588
0.00171766
0.00672142
0.0275209
0.00708822
0.00421954
0.0171211
0.0199898
0.0121047
0.0036213
0.000474655
0.00171766
0.0124588
0.00204798
0.00109616
0.00708822
0.00804004
0.0045681
0.0156984
0.0036213
0.0124588
0.0378759
0.00965987
0.00804004
0.0251674
0.0267872
0.0174136
0.00380857
0.000365792
0.0036213
0.0156984
0.00208718
0.00199355
0.00965987
0.0097535
0.00587352
0.000365792
4.1792e-05
0.000474655
0.0036213
5.40643e-05
0.00164466
4.1792e-05
0.000365792
0.000441357
5.40643e-05
0.000365792
0.00380857
0.0293046
0.0132566
0.0378559
0.0667875
0.0212806
0.0255562
0.0523217
0.0480461
0.0368011
0.0132566
0.00380857
0.0156984
0.0378559
0.00853256
0.0097535
0.0267771
0.0255562
0.0176549
0.0023837
0.000441357
0.00380857
0.0132566
0.00141253
0.00212496
0.00853256
0.00782013
0.00497255
0.00831937
0.0023837
0.0132566
0.0293046
0.00535153
0.00782013
0.0212806
0.018812
0.0133161
0.235015
0.226351
0.312965
0.322011
0.226351
0.202198
0.283608
0.312965
0.14343
0.124894
0.202198
0.226351
0.150288
0.14343
0.226351
0.235015
0.202198
0.164751
0.237205
0.283608
0.183474
0.200978
0.260407
0.242903
0.221941
0.164751
0.120039
0.180196
0.237205
0.142395
0.150117
0.208701
0.200978
0.175548
0.0981958
0.0667875
0.120039
0.164751
0.0824917
0.0934133
0.142395
0.131473
0.112443
0.124894
0.0981958
0.164751
0.202198
0.111545
0.131473
0.183474
0.163546
0.14751
0.0637405
0.0470921
0.0981958
0.124894
0.0554163
0.072644
0.111545
0.0943175
0.0834807
0.0470921
0.0293046
0.0667875
0.0981958
0.0381984
0.0480461
0.0824917
0.072644
0.060345
0.0160746
0.00831937
0.0293046
0.0470921
0.012197
0.018812
0.0381984
0.0315834
0.0251977
0.0242683
0.0160746
0.0470921
0.0637405
0.0201715
0.0315834
0.0554163
0.0440044
0.0377939
0.0799565
0.0756184
0.14343
0.150288
0.0756184
0.0637405
0.124894
0.14343
0.0696794
0.0943175
0.134162
0.109524
0.101921
0.0303197
0.0242683
0.0637405
0.0756184
0.0324948
0.0303197
0.0756184
0.0799565
0.0240576
0.00201269
0.000545283
0.0221644
0.00201269
8.85392e-07
1.20193e-05
0.000545283
0.00234492
3.04754e-06
8.85392e-07
0.00201269
0.020814
0.00234492
0.00201269
0.0240576
8.85392e-07
4.39888e-05
6.92628e-07
1.20193e-05
4.39888e-05
8.34794e-06
1.33643e-05
6.92628e-07
5.85625e-05
2.35803e-05
8.34794e-06
4.39888e-05
3.04754e-06
5.85625e-05
4.39888e-05
8.85392e-07
1.92427e-05
5.85625e-05
5.85625e-05
3.04754e-06
5.85625e-05
5.8571e-05
2.35803e-05
5.85625e-05
2.93971e-05
2.38556e-05
5.8571e-05
5.85625e-05
2.60753e-05
2.93971e-05
5.85625e-05
1.92427e-05
0.0136426
0.00146338
0.00234492
0.020814
0.00146338
1.92427e-05
3.04754e-06
0.00234492
0.000527999
2.60753e-05
1.92427e-05
0.00146338
0.00672142
0.000527999
0.00146338
0.0136426
8.34794e-06
4.3376e-06
1.22418e-05
1.33643e-05
4.3376e-06
1.62271e-06
5.30333e-10
1.22418e-05
3.12983e-05
7.96572e-06
1.62271e-06
4.3376e-06
2.35803e-05
3.12983e-05
4.3376e-06
8.34794e-06
1.62271e-06
2.96173e-06
-8.3636e-18
5.30333e-10
2.96173e-06
-8.3636e-18
-8.3636e-18
-8.3636e-18
1.97244e-09
1.97244e-09
-8.3636e-18
2.96173e-06
7.96572e-06
1.97244e-09
2.96173e-06
1.62271e-06
5.75297e-05
4.72948e-05
1.97244e-09
7.96572e-06
4.72948e-05
2.88669e-05
1.97244e-09
1.97244e-09
5.28488e-07
1.3775e-07
2.88669e-05
4.72948e-05
8.94323e-07
5.28488e-07
4.72948e-05
5.75297e-05
5.8571e-05
5.8571e-05
3.12983e-05
2.35803e-05
5.8571e-05
5.75297e-05
7.96572e-06
3.12983e-05
3.37416e-06
8.94323e-07
5.75297e-05
5.8571e-05
2.38556e-05
3.37416e-06
5.8571e-05
5.8571e-05
0.000161093
0.000379715
3.37416e-06
2.38556e-05
0.000379715
0.000497051
8.94323e-07
3.37416e-06
4.67309e-05
4.76372e-05
0.000497051
0.000379715
4.67935e-05
4.67309e-05
0.000379715
0.000161093
0.000497051
0.000538338
5.28488e-07
8.94323e-07
0.000538338
0.000633956
1.3775e-07
5.28488e-07
5.13463e-05
6.18897e-05
0.000633956
0.000538338
4.76372e-05
5.13463e-05
0.000538338
0.000497051
0.0117985
0.0230465
5.13463e-05
4.76372e-05
0.0174225
0.0115489
4.94917e-05
0.00592305
0.00873598
0.0230465
0.0341755
6.18897e-05
5.13463e-05
0.028611
0.0171187
5.6618e-05
0.0115489
0.0143338
0.135957
0.145106
0.0341755
0.0230465
0.114507
0.135957
0.0230465
0.0117985
0.125232
0.079502
0.0174225
0.0631525
0.0713272
0.000692771
0.00432469
4.67309e-05
4.67935e-05
0.00432469
0.0117985
4.76372e-05
4.67309e-05
0.00806158
0.00592305
4.7184e-05
0.00218571
0.00405438
0.0879886
0.114507
0.0117985
0.00432469
0.101248
0.0631525
0.00806158
0.0461567
0.0546546
0.0573131
0.0879886
0.00432469
0.000692771
0.0726509
0.0461567
0.00250873
0.029003
0.0375798
0.064982
0.0551153
0.0332914
0.043158
0.0491367
0.0803198
0.0670726
0.0418682
0.061094
0.00341671
0.00160075
0.00171766
3.9692e-05
0.000527999
0.00672142