# vtk DataFile Version 2.0

ASCII

DATASET UNSTRUCTURED_GRID
POINTS 45195 float
0 0.484375 0
0.015625 0.484375 0
0.015625 0.5 0
0 0.5 0
0.015625 0.484375 0
0.03125 0.484375 0
0.03125 0.5 0
0.015625 0.5 0
0.015625 0.46875 0
0.03125 0.46875 0
0.03125 0.484375 0
0.015625 0.484375 0
0 0.46875 0
0.015625 0.46875 0
0.015625 0.484375 0
0 0.484375 0
0.03125 0.484375 0
0.046875 0.484375 0
0.046875 0.5 0
0.03125 0.5 0
0.046875 0.484375 0
0.0625 0.484375 0
0.0625 0.5 0
0.046875 0.5 0
0.046875 0.46875 0
0.0625 0.46875 0
0.0625 0.484375 0
0.046875 0.484375 0
0.03125 0.46875 0
0.046875 0.46875 0
0.046875 0.484375 0
0.03125 0.484375 0
0.03125 0.453125 0
0.046875 0.453125 0
0.046875 0.46875 0
0.03125 0.46875 0
0.046875 0.453125 0
0.0625 0.453125 0
0.0625 0.46875 0
0.046875 0.46875 0
0.046875 0.4375 0
0.0625 0.4375 0
0.0625 0.453125 0
0.046875 0.453125 0
0.03125 0.4375 0
0.046875 0.4375 0
0.046875 0.453125 0
0.03125 0.453125 0
0 0.453125 0
0.015625 0.453125 0
0.015625 0.46875 0
0 0.46875 0
0.015625 0.453125 0
0.03125 0.453125 0
0.03125 0.46875 0
0.015625 0.46875 0
0.015625 0.4375 0
0.03125 0.4375 0
0.03125 0.453125 0
0.015625 0.453125 0
0 0.4375 0
0.015625 0.4375 0
0.015625 0.453125 0
0 0.453125 0
0.0625 0.484375 0
0.078125 0.484375 0
0.078125 0.5 0
0.0625 0.5 0
0.078125 0.484375 0
0.09375 0.484375 0
0.09375 0.5 0
0.078125 0.5 0
0.078125 0.46875 0
0.09375 0.46875 0
0.09375 0.484375 0
0.078125 0.484375 0
0.0625 0.46875 0
0.078125 0.46875 0
0.078125 0.484375 0
0.0625 0.484375 0
0.09375 0.484375 0
0.109375 0.484375 0.00396001
0.109375 0.5 0.00480368
0.09375 0.5 0
0.101562 0.484375 3.02198e-05
0.109375 0.492188 0.0045847
0.101562 0.5 0.000133853
0.09375 0.492188 0
0.101562 0.492188 0.000100969
0.0976562 0.484375 0
0.0976562 0.492188 0
0.0996094 0.484375 0
0.0996094 0.492188 0
0.100586 0.484375 0
0.100586 0.492188 7.99396e-06
0.101074 0.484375 3.61562e-06
0.101074 0.492188 4.14473e-05
0.10083 0.484375 1.07161e-08
0.101074 0.488281 2.06617e-05
0.10083 0.492188 2.14617e-05
0.100586 0.488281 8.85531e-07
0.10083 0.488281 7.52564e-06
0.101318 0.484375 1.36855e-05
0.101562 0.488281 6.64195e-05
0.101318 0.492188 6.79501e-05
0.101318 0.488281 4.02933e-05
0.105469 0.484375 0.00117277
0.105469 0.492188 0.00151422
0.103516 0.484375 0.000395082
0.103516 0.492188 0.000599567
0.102539 0.484375 0.000160982
0.102539 0.492188 0.00029819
0.102051 0.484375 8.26781e-05
0.102539 0.488281 0.000235852
0.102051 0.492188 0.000186553
0.102051 0.488281 0.000138153
0.101807 0.484375 5.32176e-05
0.101807 0.488281 9.90396e-05
0.102295 0.484375 0.0001186
0.102295 0.488281 0.000183757
0.102539 0.490234 0.000269221
0.102295 0.492188 0.000239116
0.102051 0.490234 0.000163865
0.102295 0.490234 0.000213292
0.101807 0.492188 0.000140504
0.101562 0.490234 8.45226e-05
0.101807 0.490234 0.000120941
0.103027 0.484375 0.000265122
0.103516 0.488281 0.000509099
0.103027 0.492188 0.000435866
0.103027 0.488281 0.000359505
0.102783 0.484375 0.000209824
0.103027 0.486328 0.000313873
0.102783 0.488281 0.000294435
0.102539 0.486328 0.000199296
0.102783 0.486328 0.000253348
0.103271 0.484375 0.000326875
0.103516 0.486328 0.000454334
0.103271 0.488281 0.000431061
0.103271 0.486328 0.000380869
0.103516 0.490234 0.000557922
0.103271 0.492188 0.000514464
0.103027 0.490234 0.000400578
0.103271 0.490234 0.000476003
0.102783 0.492188 0.000363774
0.102783 0.490234 0.00033165
0.104492 0.484375 0.0007324
0.105469 0.488281 0.00136649
0.104492 0.492188 0.00100497
0.104492 0.488281 0.000886034
0.104004 0.484375 0.000550848
0.104492 0.486328 0.000812841
0.104004 0.488281 0.000684615
0.104004 0.486328 0.000620663
0.104248 0.484375 0.000638402
0.104492 0.485352 0.000773425
0.104248 0.486328 0.000713522
0.104004 0.485352 0.000586388
0.104248 0.485352 0.000676681
0.104492 0.487305 0.000850441
0.104248 0.488281 0.000782088
0.104004 0.487305 0.000653469
0.104248 0.487305 0.000748722
0.10376 0.486328 0.000534266
0.10376 0.488281 0.000593618
0.103516 0.487305 0.000482373
0.10376 0.487305 0.000564685
0.10498 0.484375 0.000939715
0.105469 0.486328 0.00127465
0.10498 0.488281 0.00111333
0.10498 0.486328 0.00103084
0.104736 0.484375 0.000832838
0.10498 0.485352 0.000986258
0.104736 0.486328 0.000918616
0.104736 0.485352 0.000876619
0.105225 0.484375 0.00105303
0.105469 0.485352 0.00122486
0.105225 0.486328 0.00114952
0.105225 0.485352 0.00110234
0.105469 0.487305 0.00132192
0.105225 0.488281 0.00123668
0.10498 0.487305 0.00107327
0.105225 0.487305 0.00119437
0.104736 0.488281 0.00099645
0.104736 0.487305 0.000958624
0.105469 0.490234 0.00144677
0.10498 0.492188 0.00124663
0.104492 0.490234 0.000950497
0.10498 0.490234 0.00118568
0.10498 0.489258 0.00115086
0.104736 0.490234 0.00106485
0.104492 0.489258 0.000919441
0.104736 0.489258 0.00103191
0.105469 0.489258 0.00140816
0.105225 0.490234 0.00131299
0.105225 0.489258 0.00127628
0.105469 0.491211 0.00148217
0.105225 0.492188 0.00137718
0.10498 0.491211 0.00121765
0.105225 0.491211 0.00134667
0.104736 0.492188 0.00112255
0.104492 0.491211 0.000979052
0.104736 0.491211 0.00109511
0.104004 0.492188 0.000789274
0.104004 0.490234 0.000741235
0.104004 0.489258 0.000713925
0.10376 0.490234 0.000646334
0.103516 0.489258 0.000534336
0.10376 0.489258 0.000620888
0.104248 0.490234 0.000842624
0.104248 0.489258 0.000813443
0.104248 0.492188 0.000893875
0.104004 0.491211 0.000766397
0.104248 0.491211 0.000869479
0.10376 0.492188 0.000691171
0.103516 0.491211 0.00057971
0.10376 0.491211 0.000669806
0.107422 0.484375 0.0023618
0.107422 0.492188 0.00284336
0.106445 0.484375 0.00171599
0.107422 0.488281 0.00263705
0.106445 0.492188 0.0021271
0.106445 0.488281 0.00195024
0.105957 0.484375 0.00143154
0.106445 0.486328 0.00183955
0.105957 0.488281 0.00164547
0.105957 0.486328 0.00154423
0.105713 0.484375 0.00129894
0.105957 0.485352 0.00148921
0.105713 0.486328 0.00140622
0.105713 0.485352 0.00135382
0.106201 0.484375 0.00157055
0.106445 0.485352 0.00177927
0.106201 0.486328 0.00168867
0.106201 0.485352 0.00163103
0.106445 0.487305 0.00189661
0.106201 0.488281 0.00179463
0.105957 0.487305 0.00159638
0.106201 0.487305 0.00174327
0.105713 0.488281 0.00150275
0.105713 0.487305 0.00145593
0.106934 0.484375 0.00202609
0.107422 0.486328 0.00250729
0.106934 0.488281 0.00228078
0.106934 0.486328 0.00216058
0.106689 0.484375 0.00186783
0.106934 0.485352 0.00209502
0.106689 0.486328 0.00199686
0.106689 0.485352 0.00193394
0.107178 0.484375 0.00219075
0.107422 0.485352 0.00243641
0.107178 0.486328 0.00233073
0.107178 0.485352 0.00226251
0.107422 0.487305 0.00257424
0.107178 0.488281 0.0024557
0.106934 0.487305 0.00222257
0.107178 0.487305 0.00239519
0.106689 0.488281 0.0021123
0.106689 0.487305 0.00205637
0.107422 0.490234 0.00274951
0.106934 0.492188 0.00247233
0.106445 0.490234 0.00204653
0.106934 0.490234 0.00238514
0.106934 0.489258 0.00233503
0.106689 0.490234 0.00221261
0.106445 0.489258 0.00200027
0.106689 0.489258 0.00216443
0.107422 0.489258 0.00269553
0.107178 0.490234 0.00256411
0.107178 0.489258 0.00251206
0.107422 0.491211 0.00279884
0.107178 0.492188 0.00265462
0.106934 0.491211 0.00243095
0.107178 0.491211 0.00261167
0.106689 0.492188 0.00229649
0.106445 0.491211 0.00208885
0.106689 0.491211 0.00225668
0.105957 0.492188 0.00180772
0.105957 0.490234 0.00173373
0.105957 0.489258 0.00169131
0.105713 0.490234 0.00158702
0.105713 0.489258 0.0015465
0.106201 0.490234 0.0018869
0.106201 0.489258 0.00184257
0.106201 0.492188 0.00196418
0.105957 0.491211 0.00177258
0.106201 0.491211 0.00192749
0.105713 0.492188 0.00165774
0.105713 0.491211 0.00162414
0.108398 0.484375 0.00310992
0.109375 0.488281 0.00431855
0.108398 0.492188 0.00366267
0.108398 0.488281 0.0034266
0.10791 0.484375 0.00272309
0.108398 0.486328 0.00327757
0.10791 0.488281 0.003019
0.10791 0.486328 0.00287963
0.107666 0.484375 0.00253925
0.10791 0.485352 0.0028034
0.107666 0.486328 0.00269026
0.107666 0.485352 0.00261671
0.108154 0.484375 0.00291332
0.108398 0.485352 0.00319596
0.108154 0.486328 0.0030754
0.108154 0.485352 0.00299649
0.108398 0.487305 0.00335452
0.108154 0.488281 0.0032196
0.10791 0.487305 0.00295157
0.108154 0.487305 0.00314984
0.107666 0.488281 0.00282482
0.107666 0.487305 0.0027597
0.108887 0.484375 0.00352224
0.109375 0.486328 0.00415005
0.108887 0.488281 0.0038598
0.108887 0.486328 0.00370106
0.108643 0.484375 0.0033129
0.108887 0.485352 0.00361405
0.108643 0.486328 0.00348612
0.108643 0.485352 0.00340182
0.109131 0.484375 0.00373795
0.109375 0.485352 0.00405761
0.109131 0.486328 0.00392237
0.109131 0.485352 0.00383265
0.109375 0.487305 0.0042371
0.109131 0.488281 0.00408599
0.108887 0.487305 0.00378304
0.109131 0.487305 0.00400689
0.108643 0.488281 0.00364
0.108643 0.487305 0.00356559
0.109375 0.490234 0.0044639
0.108887 0.492188 0.00411087
0.108398 0.490234 0.00355542
0.108887 0.490234 0.00399686
0.108887 0.489258 0.00393113
0.108643 0.490234 0.00377294
0.108398 0.489258 0.00349362
0.108643 0.489258 0.00370918
0.109375 0.489258 0.00439421
0.109131 0.490234 0.00422718
0.109131 0.489258 0.00415948
0.109375 0.491211 0.00452744
0.109131 0.492188 0.00434459
0.108887 0.491211 0.00405682
0.109131 0.491211 0.00428893
0.108643 0.492188 0.00388356
0.108398 0.491211 0.00361181
0.108643 0.491211 0.00383111
0.10791 0.492188 0.00324015
0.10791 0.490234 0.00313962
0.10791 0.489258 0.00308174
0.107666 0.490234 0.00294135
0.107666 0.489258 0.00288543
0.108154 0.490234 0.00334431
0.108154 0.489258 0.00328448
0.108154 0.492188 0.0034482
0.10791 0.491211 0.00319247
0.108154 0.491211 0.00339893
0.107666 0.492188 0.00303854
0.107666 0.491211 0.00299244
0.105469 0.5 0.00163806
0.103516 0.5 0.000677386
0.103516 0.496094 0.000657476
0.102539 0.5 0.000353404
0.101562 0.496094 0.000125194
0.102539 0.496094 0.000339154
0.102051 0.496094 0.000219122
0.102051 0.494141 0.000205229
0.101807 0.496094 0.000168894
0.101562 0.494141 0.000114781
0.101807 0.494141 0.000156744
0.102539 0.494141 0.00032176
0.102295 0.496094 0.000275876
0.102295 0.494141 0.000260235
0.103516 0.494141 0.000633016
0.103027 0.496094 0.000485277
[...]
POINT_DATA 45195
SCALARS "u" float 1
LOOKUP_TABLE default
0
0
0
0
0
0
0
0
0
0
0
0
0
0
0
0
0
0
0
0
0
0
0
0
0
0
0
0
0
0
0
0
0
0
0
0
0
0
0
0
0
0
0
0
0
0
0
0
0
0
0
0
0
0
0
0
0
0
0
0
0
0
0
0
0
0
0
0
0
0
0
0
0
0
0
0
0
0
0
0
0
0.00396001
0.00480368
0
3.02198e-05
0.0045847
0.000133853
0
0.000100969
0
0
0
0
0
7.99396e-06
3.61562e-06
4.14473e-05
1.07161e-08
2.06617e-05
2.14617e-05
8.85531e-07
7.52564e-06
1.36855e-05
6.64195e-05
6.79501e-05
4.02933e-05
0.00117277
0.00151422
0.000395082
0.000599567
0.000160982
0.00029819
8.26781e-05
0.000235852
0.000186553
0.000138153
5.32176e-05
9.90396e-05
0.0001186
0.000183757
0.000269221
0.000239116
0.000163865
0.000213292
0.000140504
8.45226e-05
0.000120941
0.000265122
0.000509099
0.000435866
0.000359505
0.000209824
0.000313873
0.000294435
0.000199296
0.000253348
0.000326875
0.000454334
0.000431061
0.000380869
0.000557922
0.000514464
0.000400578
0.000476003
0.000363774
0.00033165
0.0007324
0.00136649
0.00100497
0.000886034
0.000550848
0.000812841
0.000684615
0.000620663
0.000638402
0.000773425
0.000713522
0.000586388
0.000676681
0.000850441
0.000782088
0.000653469
0.000748722
0.000534266
0.000593618
0.000482373
0.000564685
0.000939715
0.00127465
0.00111333
0.00103084
0.000832838
0.000986258
0.000918616
0.000876619
0.00105303
0.00122486
0.00114952
0.00110234
0.00132192
0.00123668
0.00107327
0.00119437
0.00099645
0.000958624
0.00144677
0.00124663
0.000950497
0.00118568
0.00115086
0.00106485
0.000919441
0.00103191
0.00140816
0.00131299
0.00127628
0.00148217
0.00137718
0.00121765
0.00134667
0.00112255
0.000979052
0.00109511
0.000789274
0.000741235
0.000713925
0.000646334
0.000534336
0.000620888
0.000842624
0.000813443
0.000893875
0.000766397
0.000869479
0.000691171
0.00057971
0.000669806
0.0023618
0.00284336
0.00171599
0.00263705
0.0021271
0.00195024
0.00143154
0.00183955
0.00164547
0.00154423
0.00129894
0.00148921
0.00140622
0.00135382
0.00157055
0.00177927
0.00168867
0.00163103
0.00189661
0.00179463
0.00159638
0.00174327
0.00150275
0.00145593
0.00202609
0.00250729
0.00228078
0.00216058
0.00186783
0.00209502
0.00199686
0.00193394
0.00219075
0.00243641
0.00233073
0.00226251
0.00257424
0.0024557
0.00222257
0.00239519
0.0021123
0.00205637
0.00274951
0.00247233
0.00204653
0.00238514
0.00233503
0.00221261
0.00200027
0.00216443
0.00269553
0.00256411
0.00251206
0.00279884
0.00265462
0.00243095
0.00261167
0.00229649
0.00208885
0.00225668
0.00180772
0.00173373
0.00169131
0.00158702
0.0015465
0.0018869
0.00184257
0.00196418
0.00177258
0.00192749
0.00165774
0.00162414
0.00310992
0.00431855
0.00366267
0.0034266
0.00272309
0.00327757
0.003019
0.00287963
0.00253925
0.0028034
0.00269026
0.00261671
0.00291332
0.00319596
0.0030754
0.00299649
0.00335452
0.0032196
0.00295157
0.00314984
0.00282482
0.0027597
0.00352224
0.00415005
0.0038598
0.00370106
0.0033129
0.00361405
0.00348612
0.00340182
0.00373795
0.00405761
0.00392237
0.00383265
0.0042371
0.00408599
0.00378304
0.00400689
0.00364
0.00356559
0.0044639
0.00411087
0.00355542
0.00399686
0.00393113
0.00377294
0.00349362
0.00370918
0.00439421
0.00422718
0.00415948
0.00452744
0.00434459
0.00405682
0.00428893
0.00388356
0.00361181
0.00383111
0.00324015
0.00313962
0.00308174
0.00294135
0.00288543
0.00334431
0.00328448
0.0034482
0.00319247
0.00339893
0.00303854
0.00299244
0.00163806
0.000677386
0.000657476
0.000353404
0.000125194
0.000339154
0.000219122
0.000205229
0.000168894
0.000114781
0.000156744
0.00032176
0.000275876
0.000260235
0.000633016
0.000485277
0.000464361
0.000451017
0.000389803
0.000310703
0.000377604
0.00061737
0.000545432
0.000530939
0.00064641
0.000568118
0.000475807
0.000557851
0.000408955
0.000331269
0.000400279
0.00067238
0.000502349
0.000349814
0.000498053
0.000492709
0.000420671
0.000345352
0.000415769
0.000666149
0.000581956
0.00057617
0.000676133
0.000586607
0.000501273
0.000585442
0.000424614
0.000352505
0.000423626
0.000230568
0.000131661
0.000227679
0.000176405
0.000285482
0.000224093
0.000281459
0.000288722
0.000229844
0.00028791
0.000178945
0.00160662
0.00110566
0.00108003
0.00104841
0.000855733
0.000827707
0.000809747
0.000727108
0.000710307
0.00102813
0.00093481
0.000915687
0.00106574
0.000964626
0.000843062
0.000951149
0.000753348
0.000741481
0.00156778
0.00133033
0.00129511
0.00127248
0.00116852
0.00114706
0.00154279
0.0014282
0.0014044
0.00158908
0.00146523
0.00131442
0.00144851
0.00120193
0.00118683
0.00163017
0.00135886
0.00109922
0.0013517
0.00134277
0.00122221
0.0010912
0.00121374
0.00162034
0.00148768
0.00147831
0.00163608
0.00149521
0.00135707
0.00149332
0.00122901
0.00110405
0.00122731
0.000878497
0.000872778
0.000865654
0.000769321
0.000762645
0.000982746
0.000975175
0.000988825
0.000877066
0.000987303
0.000774684
0.000773341
0.00474843
0.00301425
0.00297104
0.00223705
0.00219089
0.00190888
0.00186638
0.00183903
0.00171384
0.00168767
0.00216115
0.0020254
0.00199686
0.00221622
0.00206972
0.00188969
0.00204972
0.00175451
0.00173615
0.00291748
0.00259112
0.00254127
0.00250914
0.00236285
0.00233191
0.00288294
0.00272615
0.00269281
0.00294688
0.00277785
0.00256862
0.00275452
0.00241085
0.00238919
0.00467984
0.00380828
0.00374725
0.00370785
0.00331949
0.00328253
0.00326201
0.00307952
0.00286377
0.00305967
0.00368598
0.00349198
0.00347078
0.00372828
0.00353015
0.00330169
0.00351177
0.00311526
0.00290085
0.00309805
0.00463554
0.00420072
0.00415887
0.00413564
0.00393016
0.0039076
0.00461093
0.00439401
0.00437008
0.00465852
0.00443707
0.00418057
0.00441634
0.00397077
0.00395122
0.0047175
0.00426552
0.00378075
0.00423629
0.00421929
0.00400531
0.00376474
0.00398881
0.00469951
0.00447369
0.00445619
0.00473381
0.00450377
0.0042517
0.00448955
0.00403369
0.00379527
0.00402027
0.00337678
0.00335093
0.00333591
0.00314568
0.00293283
0.00313115
0.00356263
0.00354711
0.00358931
0.00336456
0.0035767
0.00317068
0.00295962
0.00315886
0.00478984
0.00385748
0.00300342
0.00384515
0.00382977
0.00341139
0.00298991
0.00339695
0.00338757
0.0031902
0.00298114
0.00318113
0.00381979
0.00361014
0.00360046
0.00383823
0.00362505
0.00340489
0.00361834
0.00320418
0.00299733
0.00319789
0.00477256
0.00430465
0.00428832
0.00427773
0.00405583
0.00404554
0.00476135
0.00452723
0.00451633
0.00478206
0.00454403
0.0042973
0.00453647
0.00407169
0.00406455
0.00480022
0.00431774
0.0038544
0.00431446
0.00431037
0.00408122
0.00385055
0.00407724
0.00479589
0.00455413
0.00454992
0.00480281
0.0045575
0.00431692
0.00455666
0.0040844
0.00385671
0.0040836
0.00342298
0.00301154
0.00342008
0.00341646
0.00321259
0.00300816
0.00320908
0.00363402
0.00363028
0.00363701
0.00342225
0.00363626
0.00321539
0.00301358
0.00321469
0.00227434
0.00226499
0.00194323
0.00193461
0.00192386
0.00177914
0.00176886
0.00225333
0.00209656
0.00208536
0.002272
0.00210554
0.00194107
0.0021033
0.0017874
0.00178533
0.00263136
0.00262127
0.00260869
0.00243989
0.00242777
0.00280911
0.00279607
0.00281958
0.00262884
0.00281696
0.00244962
0.00244718
0
0
1.88245e-05
0
5.2291e-07
1.04451e-06
1.56871e-05
6.40563e-06
1.19935e-07
4.63761e-06
6.32695e-05
5.738e-05
5.04251e-05
3.3268e-05
1.21684e-05
2.8034e-05
8.80222e-05
7.93411e-05
9.52944e-05
6.177e-05
9.34491e-05
3.77793e-05
1.80133e-05
3.66245e-05
0.00396001
0.030992
0.0334936
0.00480368
0.0143773
0.0328579
0.0160235
0.0045847
0.0156028
0.00837185
0.00929151
0.00596454
0.00890205
0.0067353
0.00431855
0.00640809
0.00491169
0.00620005
0.00531253
0.00415005
0.00512435
0.00711809
0.00865371
0.00760477
0.00737667
0.00911515
0.00796296
0.00658698
0.00780068
0.00560906
0.0044639
0.00547456
0.0111777
0.0150855
0.012249
0.0117962
0.00972526
0.0115068
0.0102994
0.0100306
0.0127286
0.0147544
0.0133918
0.0130816
0.0153688
0.0138767
0.0120441
0.0136573
0.0107204
0.0105298
0.0219347
0.0234759
0.017965
0.0228267
0.0193472
0.0187644
0.016123
0.0183909
0.0168766
0.0165244
0.0199025
0.0224101
0.0207481
0.0203531
0.0231825
0.021364
0.0190837
0.0210856
0.0174266
0.0171779
0.0262795
0.032073
0.0279821
0.0272654
0.0240607
0.0268051
0.0249994
0.0245611
0.0285903
0.0315685
0.0296236
0.0291413
0.0325034
0.0303743
0.0276583
0.0300351
0.0256823
0.0253737
0.0240027
0.0238704
0.0198205
0.0159178
0.0197016
0.0195535
0.0177612
0.0157861
0.0176213
0.0237056
0.0217383
0.0215819
0.0239696
0.0218639
0.0197908
0.0218325
0.0178735
0.015997
0.0178454
0.0333341
0.0285629
0.0284171
0.0282354
0.026097
0.0259237
0.0331352
0.0308298
0.0306395
0.0334537
0.0309825
0.0285264
0.0309443
0.026236
0.0262012
0.00960955
0.0095295
0.00700334
0.00474843
0.00693581
0.00685188
0.00579108
0.00467984
0.00571486
0.00942994
0.00818212
0.00809042
0.0095895
0.00825588
0.00698642
0.00823741
0.00585244
0.00478984
0.00583707
0.012618
0.0125252
0.0124097
0.0109774
0.0108699
0.0141722
0.0140487
0.0142714
0.0125947
0.0142466
0.0110638
0.0110421
0.00193515
0.0241354
0.030992
0.00396001
0.0100152
0.0280182
0.0143773
0.00302511
0.0124558
0.00519991
0.00695266
0.00337174
0.00478984
0.00260429
0.00409892
0.00385748
0.00248763
0.00324367
0.0042371
0.00610526
0.00582172
0.00505294
0.00556684
0.00653793
0.00637484
0.00544491
0.00597912
0.00741588
0.0112868
0.00950954
0.00850276
0.00625969
0.00725539
0.00682577
0.00796749
0.00786695
0.00676435
0.00735385
0.00866794
0.00984679
0.00802997
0.00926691
0.00916273
0.0086052
0.00932972
0.010662
0.0105549
0.00995252
0.011886
0.0109343
0.00901795
0.0104038
0.00818212
0.00772913
0.0163431
0.0194944
0.0129929
0.0179932
0.0157861
0.0144523
0.0114571
0.0137363
0.0128222
0.012152
0.0146218
0.0171848
0.0161762
0.0154142
0.0187644
0.0175934
0.0151368
0.0169039
0.0140733
0.0134639
0.0200596
0.0261751
0.0235742
0.0219032
0.018156
0.0210009
0.0199025
0.0190473
0.022053
0.0251777
0.0239944
0.0230447
0.0271233
0.0257511
0.0227623
0.0248979
0.0214883
0.0207175
0.0219347
0.0208168
0.017965
0.013494
0.0169653
0.0163967
0.0151818
0.0129929
0.014647
0.0201797
0.018844
0.0182412
0.0214028
0.0199025
0.017489
0.0193987
0.016123
0.0139564
0.0156747
0.0296329
0.0262795
0.0250418
0.0243352
0.0228831
0.0222113
0.0288559
0.0272921
0.0265504
0.0303459
0.0285903
0.0256909
0.027973
0.0240607
0.0235005
0.00837185
0.00771576
0.00596454
0.00352298
0.00541903
0.00442069
0.00431119
0.00511361
0.00490731
0.00414685
0.00461771
0.00734625
0.00651755
0.00618024
0.00805845
0.00711809
0.00570348
0.00683099
0.00491169
0.00375029
0.00467643
0.0111777
0.010409
0.00997425
0.0090131
0.00861111
0.0119029
0.0114351
0.0127286
0.010811
0.0123349
0.00972526
0.00938533
0
0.00193515
0.00396001
0
0
0.00302511
3.02198e-05
0
0
0.000248479
0.0007027
2.63885e-06
0.000149711
0
5.32392e-05
2.59608e-05
0
3.51143e-08
7.56085e-05
0.000462553
0.000375339
0.000207456
0.000893242
0.00166183
0.000521091
0.00113161
0.000372329
0.000818356
0.000904475
0.000627879
0.000694739
0.00127465
0.00138407
0.00103396
0.00136469
0.00229311
0.00111657
0.00183117
0.00196486
0.0015404
0.00163756
0.00248763
0.00264654
0.00214693
0.00117277
0.000395082
0.000160982
0.0007324
0.000526313
0.000946028
0.000939715
0.000556787
0.000738611
0.0023618
0.00203105
0.00171599
0.00143753
0.00352298
0.00310992
0.00272631
0
0.000171418
0.00193515
0
0
0.000899031
0
0
0
0
4.39332e-06
0
0.000479216
0.000257594
0
6.48826e-05
3.8823e-05
0.00030902
0.000224272
1.44046e-05
0.000114273
0.000677386
0.000529902
0.00014739
0.000364287
1.27581e-06
8.23548e-05
0
2.69337e-05
0.000248479
0
8.62772e-05
2.63885e-06
0
0
0
3.34217e-05
5.11268e-06
0
0
7.56085e-05
0.000893242
0.000544381
0.000521091
0.000266095
0.00139541
0.00136469
0.000920908
0.000171418
0.0147797
0.0241354
0.00193515
0.0045847
0.0196127
0.0100152
0.000899031
0.00729426
0.00163806
0.00333734
0.000718117
0.00244855
0.00192655
0.000479216
0.00127465
0.000397945
0.000982083
0.000829445
0.00030902
0.000598389
0.00113161
0.00203105
0.00181448
0.00145976
0.00258423
0.00159103
0.00136469
0.000677386
0.00108641
0.00292815
0.00512794
0.00223705
0.00399764
0.0041854
0.00317643
0.00192601
0.00269553
0.00280079
0.00235167
0.00257112
0.00345275
0.0035754
0.00306258
0.00371088
0.00591802
0.00616441
0.00491169
0.00330809
0.0043022
0.0044431
0.00386597
0.00897923
0.0127345
0.00660337
0.00983155
0.00554907
0.00820513
0.00851685
0.00701604
0.00774699
0.0112377
0.00716406
0.00948463
0.0105232
0.00883362
0.00835207
0.0108538
0.0119748
0.0101581
0.0117067
0.015997
0.0102994
0.0143212
0.00962836
0.012312
0.0135166
0.0115718
0.0109922
0.0138583
0.015148
0.0130742
0.0132004
0.0172123
0.0177612
0.0154921
0.0163414
0.0184195
0.0186761
0.0166323
0.0175151
0.0146643
0.0168681
0.0149322
0.0157713
0.0163431
0.0129929
0.0114406
0.0114571
0.00867268
0.0100101
0.0107137
0.0122261
0.0122133
0.0107417
0.0114723
0.00932972
0.0107244
0.0093507
0.0100345
0.0145777
0.0146218
0.0129634
0.0121065
0.0121905
0.0106408
0.0113622
0.0136634
0.0137592
0.0128736
0.0154726
0.0154709
0.0138034
0.0146265
0.0137957
0.0130032
0.0219347
0.0200596
0.018078
0.0162829
0.0153106
0.015419
0.0144758
0.0170474
0.0171693
0.0161679
0.0207863
0.0199623
0.0188729
0.0230528
0.022053
0.0190837
0.021024
0.018156
0.017233
0.00519991
0.00337174
0.00263705
0.00260429
0.00139541
0.00196757
0.0042371
0.00224344
0.00340345
0.00379221
0.00300816
0.00294889
0.00426633
0.00470636
0.00382286
0.00741588
0.00625969
0.00374953
0.00522523
0.00571771
0.00473381
0.00464489
0.00627963
0.00682577
0.00574053
0.00866794
0.00742898
0.00803908
0.00932972
0.00805389
0.00869049
0
0.00573387
0.0147797
0.000171418
0.000567044
0.0100152
0.0045847
0
0.00222084
0
0.000414365
0
8.62772e-05
4.78516e-05
0
0
0
1.23337e-05
6.96211e-06
0
0
0.000222134
0.000186066
2.3414e-06
6.75841e-05
0.000114781
0.0012816
0.00113978
0.000509099
1.722e-05
0.000279509
0.000253776
0.000102407
0.00029819
0.000893242
0.000851851
0.00054326
0.00172612
0.00163608
0.000797772
0.00121808
0.0007324
0.000465654
0.00248763
0.00543381
0.00135931
0.00386057
0.00365367
0.00240016
0.000920908
0.00185005
0.00179787
0.001329
0.00188173
0.00314586
0.00308792
0.00245585
0.00462535
0.00450063
0.00300342
0.0037716
0.00289355
0.0023214
0.00394751
0.00778724
0.00755621
0.00565805
0.00317643
0.00477601
0.0047175
0.00391945
0.00480022
0.0067353
0.00668154
0.00571486
0.00888282
0.00874401
0.00658698
0.00769349
0.00645257
0.00556403
0.00897923
0.00715657
0.00660337
0.00333734
0.00507074
0.00434479
0.00415968
0.00275986
0.00350829
0.00627963
0.00606992
0.00526878
0.00805845
0.00774699
0.00582556
0.00689797
0.00554907
0.00394751
0.00484186
0.0123637
0.0117067
0.0095895
0.0085592
0.00833
0.00737667
0.0111777
0.0109343
0.00982648
0.0132004
0.0102513
0.0120611
0.0124428
0.0106408
0.0113402
0.0116385
0.0135665
0.0139794
0.0128032
0.0102994
0.00773248
0.00930629
0.00962836
0.00867149
0.00894904
0.0109922
0.00996274
0.00163806
0.000946028
0.000718117
1.30061e-05
0.000295718
3.51143e-08
0.00014739
0.000108257
0
2.89334e-05
0.000657476
0.000575088
0.000357013
0.00127465
0.00113161
0.00048766
0.000835017
0.000397945
7.1139e-05
0.000232929
0.00292815
0.00196106
0.00152942
0.00140816
0.00104841
0.00260429
0.00210007
0.00371088
0.00242913
0.00314308
0.00223705
0.00180617
0
0
0.000171418
0
0
0
0
0
0
0
1.30061e-05
0
0
0
0
7.1139e-05
0
0
0
2.56281e-06
3.8823e-05
0
0
0
0
0
0
0
0
0
0
0
0
0
0
0
0
0
0
0
0
0
0
0
0
0
0
0
0
0
0
0
0
0
0
0
0
0
0.000368872
0.00573387
0
0
0.00237136
0.000567044
0
0
0
0.00117277
0.000548876
0
8.62772e-05
0
4.00678e-06
0
0
0
4.78516e-05
0.000718117
0.000475022
0.000208143
5.6636e-07
0.000114273
6.75841e-05
0
2.02874e-05
0.000170795
0.000529902
0.00042517
0.000284323
0.000932686
0.00078555
0.000328662
0.00059252
0.000241752
3.20679e-05
0.00014167
0.00172612
0.00130256
0.000270005
0.00084201
0.00064641
0.000516714
0.000165852
0.000367035
0.00143753
0.00124534
0.00100343
0.00203768
0.00179787
0.001061
0.00151043
0.000886034
0.000397945
0.000689984
0.000114781
0
1.44046e-05
9.09727e-06
0.000102407
7.92788e-08
4.33746e-05
0.000291622
5.2894e-05
0.000185416
0
1.88245e-05
0
8.41747e-07
0.00391012
0.00248763
0.000125194
0.00136649
0.000916511
0.000580869
2.15851e-05
0.000305667
0.000199296
0.000122548
1.73722e-06
5.96461e-05
0.000721998
0.000570485
0.000420241
0.00113161
0.000932686
0.000433117
0.000741563
0.000311547
6.2987e-05
0.000206769
0.00310166
0.00247783
0.00185005
0.00156585
0.00134322
0.00110405
0.00272631
0.00243641
0.00210681
0.00349655
0.00315418
0.00215432
0.00278581
0.00188173
0.00160272
0.00478984
0.00394751
0.00189235
0.00317922
0.00281974
0.00249499
0.00162034
0.00217943
0.00434151
0.00394439
0.00354065
0.00480022
0.00317643
0.00135931
0.00030902
0.000934163
0.000748145
0.00057971
0.000207456
0.000436116
0.00137189
0.00114306
0.00218172
0.00188173
0.00113814
0.00161837
0.000920908
0.000429134
0.000741563
0
0
0
0
0
0
0
0
0
2.2249e-05
0
2.19935e-06
0.000114781
0
2.07155e-05
1.722e-05
0
0
0.00029819
0.000122548
0
0
0.000368872
0
0
0
0
0
0
0
1.30061e-05
0
0
0
0
0.000131661
4.78516e-05
0
0
0
5.7111e-05
2.89334e-05
0
2.19935e-06
0.000235852
0.000170795
9.67573e-06
8.53976e-05
0
0
0
0
0
0
0
0
0
0
0
0
0
0
0
0
0
0
0
0
0
0
0
0
0
0
0
0
0
0
0
0
0
0
0
0
0
0
0
0
0
0
0
0
0
0
0
0
0
0
0
0
0
0
0
0
0
0
0
0
0
0
0
0
0
0
0
0
0
0
0
0
0
0
0
0
0
0
0
0
0
0
0
0
0
0
0
0
0
0
0
0
0
0
0
0
0
0
0
0
0.030992
0.0808372
0.0851635
0.0334936
0.0533484
0.0840694
0.0567474
0.0328579
0.0558862
0.0414872
0.0548205
0.0436856
0.032073
0.0427617
0.0360641
0.0421672
0.0372413
0.0315685
0.0366921
0.0472519
0.0541341
0.0486247
0.0479845
0.0554051
0.0496192
0.0432685
0.0491703
0.0380954
0.0325034
0.0377097
0.0664949
0.0827135
0.0693777
0.0681678
0.0597664
0.067388
0.0613385
0.0606056
0.0735225
0.0818391
0.0752968
0.0744699
0.0834576
0.0765795
0.0688317
0.0760007
0.062476
0.0619626
0.0848892
0.0703546
0.0565314
0.0701096
0.0698041
0.0631644
0.056262
0.0628771
0.084547
0.0773552
0.0770314
0.0850949
0.0776149
0.0702933
0.0775499
0.0633949
0.0566933
0.0633372
0.0444329
0.0333341
0.0442454
0.0440117
0.0386131
0.0331352
0.0383969
0.035432
0.0382568
0.0357214
0.0330063
0.0355869
0.0411608
0.0441402
0.0413857
0.0385158
0.0412844
0.0359289
0.0332445
0.0358354
0.0502215
0.04997
0.0504232
0.044386
0.0503727
0.0471911
0.0503097
0.047337
0.0443274
0.0472762
0.0504106
0.0473857
0.0444212
0.0473735
0.0387866
0.0334537
0.0387432
0.038689
0.0360537
0.0334038
0.0360017
0.041521
0.0414646
0.0415662
0.0387758
0.0415549
0.0360954
0.0334837
0.036085
0.0808372
0.148109
0.154329
0.0851635
0.112712
0.152759
0.117983
0.0840694
0.116652
0.0962778
0.115
0.0998627
0.0827135
0.0983594
0.0884266
0.0973896
0.0904053
0.0818391
0.0894834
0.104377
0.113934
0.106562
0.105545
0.115907
0.10814
0.0991845
0.107428
0.0918348
0.0834576
0.0911899
0.130028
0.150811
0.134323
0.132523
0.121267
0.131361
0.123659
0.122545
0.138981
0.149553
0.141579
0.140369
0.151881
0.143453
0.133512
0.142608
0.125384
0.124606
0.153936
0.135774
0.117649
0.13541
0.134957
0.126427
0.117233
0.125992
0.153445
0.144585
0.144113
0.154231
0.144964
0.135683
0.144869
0.126775
0.1179
0.126688
0.101075
0.0848892
0.100771
0.100392
0.0926989
0.084547
0.0923383
0.109093
0.108695
0.109411
0.100999
0.109332
0.092988
0.0850949
0.0929157
0.0686502
0.130383
0.148109
0.0808372
0.0977619
0.140555
0.112712
0.0756162
0.106327
0.0827135
0.102296
0.0904765
0.0723327
0.0868206
0.0755523
0.0848207
0.0794467
0.0705387
0.0775499
0.090121
0.100089
0.0944417
0.0923383
0.104377
0.0982846
0.0887076
0.0964256
0.082916
0.0740269
0.0812371
0.113689
0.135774
0.123058
0.118652
0.105623
0.116237
0.110371
0.10806
0.121947
0.133152
0.127125
0.124606
0.138244
0.131718
0.120928
0.129497
0.114589
0.11255
0.14468
0.130028
0.109811
0.126863
0.125038
0.118234
0.10814
0.116486
0.142702
0.135683
0.133782
0.146484
0.138981
0.128527
0.137417
0.121267
0.111336
0.119829
0.0962778
0.0784622
0.0936405
0.0921223
0.0859207
0.0770961
0.0844787
0.101608
0.100014
0.104377
0.0950269
0.103064
0.0884266
0.0797104
0.0872379
0.0241354
0.0686502
0.0808372
0.030992
0.0438718
0.0756162
0.0533484
0.0280182
0.0492698
0.0333341
0.0379666
0.0285629
0.0357732
0.0328184
0.0261751
0.0308012
0.0384401
0.0467187
0.0434536
0.0410822
0.0556721
0.0723327
0.0618489
0.058934
0.0496192
0.0573439
0.0526728
0.0453299
0.0511837
0.0620195
0.0705387
0.0654911
0.0637994
0.0740269
0.0685898
0.0604372
0.0670895
0.0554051
0.0480336
0.0540815
0.0784622
0.0664949
0.0514898